14
pair_070_a smiles=O=C/C(O)=C\C=C\O id=3 energy_eV=-52.384884
H -3.326529 0.241840 -0.778579
H 3.117891 0.667487 0.640074
H 0.163547 2.103515 0.258786
H -1.385539 0.778744 1.181537
H -1.401159 -0.761189 -1.468668
H 0.831005 -1.510214 -0.758104
C 1.158302 1.684286 0.457053
C -1.734998 0.380156 0.238753
C 1.389381 0.286827 0.105333
C -0.941360 -0.296736 -0.599354
C 0.466396 -0.544538 -0.421689
O 2.058847 2.354059 0.920929
O -3.044796 0.622871 0.057085
O 2.658895 -0.113946 0.295186
14
pair_070_b smiles=O=C/C(O)=C\C=C\O id=4 energy_eV=-52.364586
H -2.857454 -1.177144 -1.821947
H 1.162434 1.653672 2.458133
H -1.027392 1.635536 -0.021722
H -1.725667 -0.584601 -0.085709
H 0.604959 -0.869390 -2.041874
H 1.920842 -0.763986 0.093161
C -0.367673 1.677895 0.854958
C -1.199750 -0.711815 -1.025322
C 0.722041 0.709555 0.930352
C 0.129306 -0.603742 -1.103733
C 0.978673 -0.233206 -0.001172
O -0.499351 2.517372 1.723424
O -1.958522 -1.007971 -2.101940
O 1.529237 0.887379 1.991085
