13
pair_118_a smiles=C[C@@H](O)C(=O)C=O id=4 energy_eV=-47.907280
H -2.289638 -0.028104 -0.124498
H 1.021097 2.607563 -0.884677
H 0.167412 -0.687855 1.823559
H 0.077851 -2.229758 0.967579
H 1.424568 -1.121302 0.647719
H -0.101899 -0.986889 -1.199286
C 1.070802 1.537656 -0.608045
C -0.301540 0.922387 -0.360327
C 0.362506 -1.183217 0.872630
C -0.467032 -0.570714 -0.247969
O 2.100047 0.938777 -0.506337
O -1.245450 1.671035 -0.290371
O -1.818725 -0.869579 -0.089977
13
pair_118_b smiles=C[C@@H](O)C(=O)C=O id=2 energy_eV=-47.922356
H -2.198932 0.119965 0.586180
H 1.130204 -2.657644 0.026387
H -0.423905 0.885475 -1.722829
H 0.065201 2.288419 -0.762928
H 1.214856 0.970786 -1.033001
H 0.290426 0.861488 1.243640
C 1.130739 -1.583103 0.289503
C -0.250124 -0.939703 0.306656
C 0.165557 1.209687 -0.865024
C -0.352468 0.555676 0.410506
O 2.122855 -0.983162 0.581810
O -1.223010 -1.651138 0.269325
O -1.671398 0.923254 0.669776
