13
pair_079_a smiles=O=C(O)C1(O)CC1 id=3 energy_eV=-48.164116
H 2.056733 -1.007066 0.410495
H 1.083400 -0.199071 -1.623066
H -2.002703 -0.636192 -0.193898
H -1.333798 0.293355 -1.631531
H -0.554606 2.117709 -0.118993
H -1.224369 1.205397 1.333793
C 0.339011 -0.954097 1.119436
C -1.286054 0.078878 -0.571981
C -0.824141 1.173071 0.330703
C 0.089765 0.028647 0.016088
O -0.488082 -1.273671 1.923490
O 1.579002 -1.443532 1.130734
O 1.197864 0.279673 -0.800896
13
pair_079_b smiles=O=C(O)C1(O)CC1 id=2 energy_eV=-48.163979
H -0.374279 -2.373902 0.524558
H -0.161335 -1.448268 -1.671390
H -1.105609 1.562660 0.809169
H -1.905531 1.120887 -0.789520
H 0.335490 0.975821 -1.876310
H 1.152900 1.411836 -0.288858
C 0.234807 -0.729828 1.138088
C -1.037517 1.067138 -0.148435
C 0.303835 0.975140 -0.794627
C -0.304894 -0.240064 -0.172006
O 0.744958 -0.023187 1.957947
O 0.072467 -2.041280 1.317277
O -0.815589 -1.247221 -1.000346
