8
pair_074_a smiles=O/C=C\O id=0 energy_eV=-29.126776
H -1.492052 0.988049 1.195133
H 1.311722 1.148951 -0.157210
H -1.384379 -1.029675 0.148471
H 0.844406 -1.562624 -0.770063
C -0.601315 -0.287943 0.075051
C 0.597309 -0.573113 -0.416618
O -0.886289 1.001816 0.455053
O 1.610597 0.314538 -0.529817
8
pair_074_b smiles=O/C=C\O id=1 energy_eV=-29.118763
H -0.552849 -0.411550 1.592518
H 1.822830 -1.092839 -0.213872
H -1.565764 0.930230 -0.666270
H 0.707613 0.440340 -1.528174
C -0.831302 0.401195 -0.079532
C 0.384253 0.139458 -0.542030
O -1.267568 0.057310 1.151346
O 1.302787 -0.464144 0.286014
