13
pair_114_a smiles=O=CC(C=O)=C1O[C@H]1O id=2 energy_eV=-51.251827
H 1.349320 -1.316789 -2.177784
H -1.229820 0.973791 -1.603416
H -2.341794 -0.708320 1.593538
H 2.176031 1.077207 -0.942060
C -1.698725 0.568145 -0.684437
C -1.248726 -0.752096 1.457882
C -0.773375 -0.115499 0.217876
C 0.525449 -0.127152 -0.121527
C 1.641052 0.137910 -0.978662
O -2.878039 0.702805 -0.480705
O -0.528703 -1.285797 2.261280
O 1.937185 -0.562267 -2.085591
O 1.673166 -0.581017 0.329925
13
pair_114_b smiles=O=CC(C=O)=C1O[C@H]1O id=0 energy_eV=-51.247509
H 2.326991 0.344804 -2.718923
H -1.401896 1.306848 -0.835388
H -1.885588 -1.289280 1.873055
H 2.057013 1.415434 -0.748187
C -1.689374 0.631235 -0.005457
C -0.844189 -1.244480 1.514521
C -0.613732 -0.239035 0.464878
C 0.593867 -0.083674 -0.097718
C 1.518601 0.511216 -1.010881
O -2.807210 0.643267 0.443616
O 0.009559 -1.971315 1.953080
O 1.473595 0.176058 -2.311659
O 1.804024 -0.582695 -0.033430
