14
pair_086_a smiles=O=C1C=C[C@H]1C(O)O id=3 energy_eV=-52.121025
H 0.235254 2.412648 0.795850
H 3.214536 1.386150 0.670287
H -1.341690 -2.131230 0.748276
H 1.470770 -2.062886 0.423190
H 1.022609 0.867734 -0.953566
H 1.436916 0.322064 2.022438
C -0.628459 0.076918 1.214101
C -0.593426 -1.358244 0.855592
C 0.741897 -1.316728 0.708006
C 1.439827 1.111746 0.030331
C 0.916128 0.140404 1.077136
O -1.458201 0.904030 1.455650
O 1.113296 2.422190 0.403122
O 2.813633 1.024525 -0.124604
14
pair_086_b smiles=O=C1C=C[C@H]1C(O)O id=2 energy_eV=-52.108578
H 2.647448 2.412803 -0.302211
H 1.640997 2.542563 2.333983
H -0.602730 -2.374384 1.140743
H 0.276989 -0.517384 3.084410
H 2.461342 0.424773 0.722561
H -0.336856 1.538946 1.180644
C -0.124991 -0.347596 0.006776
C -0.276076 -1.343890 1.097500
C 0.139501 -0.456071 2.013701
C 1.758552 1.237722 0.930672
C 0.352426 0.698323 1.059299
O -0.292156 -0.323867 -1.171613
O 1.741288 2.173231 -0.101405
O 2.209166 1.793523 2.137387
