12
pair_021_a smiles=OC1=CC[C@H]1O id=2 energy_eV=-44.176224
H -0.560780 0.593276 -2.622600
H -2.195675 -0.945133 0.737662
H 1.545878 1.575722 -0.862796
H 1.757405 -0.368010 1.247367
H 0.571500 0.851343 1.782052
H -0.063274 -1.721377 0.346578
C 0.895956 0.838200 -0.413122
C -0.146107 0.120023 -0.838242
C 0.871254 0.201763 0.959588
C -0.309105 -0.656646 0.437058
O -0.879640 -0.013711 -1.951855
O -1.487411 -0.475450 1.178309
12
pair_021_b smiles=OC1=CC[C@H]1O id=1 energy_eV=-44.206310
H -0.839501 1.659937 -2.291539
H 1.932546 -0.624573 -0.388170
H -2.185375 -0.573642 -1.021928
H -0.043814 -1.821548 0.512751
H -1.054423 -0.839796 1.596202
H 0.423769 1.078710 1.240108
C -1.248727 -0.298041 -0.556892
C -0.350739 0.672522 -0.758719
C -0.514615 -0.844524 0.646463
C 0.486363 0.335857 0.444174
O -0.152830 1.675027 -1.621920
O 1.844619 0.051364 0.286362
