15
pair_065_a smiles=CC1(O)OCCO1 id=0 energy_eV=-51.909725
H -1.705541 0.338337 1.245223
H -1.625511 0.448298 -2.084825
H 0.142727 0.510252 -2.274381
H -0.746571 1.945878 -1.723304
H 1.390646 -1.783966 -0.170561
H 0.426881 -2.143724 1.281683
H 0.718735 0.084618 2.148980
H 2.237851 -0.010612 1.231210
C -0.701885 0.859302 -1.685228
C 0.668847 -1.378437 0.543602
C 1.155041 -0.083530 1.158010
C -0.537299 0.418118 -0.257376
O -1.605016 0.911234 0.482238
O -0.515694 -0.989809 -0.126906
O 0.696791 0.874042 0.231635
15
pair_065_b smiles=CC1(O)OCCO1 id=1 energy_eV=-51.916130
H 1.665619 0.715598 1.062815
H -0.100520 -2.348487 -0.557080
H 1.171878 -2.290356 0.684702
H 1.578493 -1.982403 -1.011310
H -2.231481 0.414066 0.644012
H -1.212723 1.657296 1.409711
H -1.569504 1.503056 -1.388834
H -0.086867 2.151505 -0.643607
C 0.816121 -1.853184 -0.245815
C -1.232057 0.850616 0.676894
C -0.757209 1.289393 -0.698521
C 0.562528 -0.386331 -0.037324
O 1.766350 0.286787 0.211772
O -0.304335 -0.156530 1.050882
O -0.066293 0.148973 -1.158295
