12
pair_104_a smiles=O=COCCO id=7 energy_eV=-43.254795
H -0.759416 0.701689 -2.648208
H 0.265728 -1.719167 1.529081
H -1.786095 -0.519092 -0.345411
H -1.311790 1.172352 -0.498149
H 1.070067 0.360782 -0.946635
H 0.531496 -1.252057 -0.456722
C 0.362836 -0.698164 1.939998
C -1.074632 0.155409 -0.822379
C 0.329006 -0.182009 -0.358903
O 0.367371 -0.443637 3.100228
O -1.229796 -0.006859 -2.208665
O 0.493810 0.234645 0.989886
12
pair_104_b smiles=O=COCCO id=6 energy_eV=-43.271091
H -0.136838 -0.450870 -3.334444
H 0.351079 1.229190 1.730793
H 1.079132 -0.618042 -1.326532
H -0.369941 -1.636400 -1.364046
H -1.679394 0.248711 -0.376255
H -0.175406 1.175279 -0.210812
C 0.142374 0.176370 1.988408
C -0.013415 -0.602430 -1.407557
C -0.599907 0.169654 -0.251527
O 0.325978 -0.297312 3.062323
O -0.440689 0.051118 -2.579847
O -0.336255 -0.526135 0.956902
