14
pair_002_a smiles=CO[C@H]1CCO1 id=0 energy_eV=-48.168076
H 1.586438 1.715588 -1.161791
H 2.931997 0.566499 -1.038120
H 1.645712 0.284645 -2.227513
H -1.177637 -0.459189 2.486890
H -2.443665 0.200735 1.420051
H -0.340362 -1.890344 0.663861
H -1.739376 -1.417060 -0.334798
H -0.509107 0.624144 -1.042049
C 1.863706 0.660488 -1.222562
C -1.404458 -0.130881 1.471461
C -0.968802 -1.062568 0.344585
C -0.146540 0.126980 -0.135275
O 1.203913 -0.110607 -0.245401
O -0.501819 0.891572 1.020661
14
pair_002_b smiles=CO[C@H]1CCO1 id=2 energy_eV=-48.205181
H -0.835155 -1.106435 2.330348
H 0.472453 -0.133439 3.043912
H 0.851351 -1.365829 1.819813
H 0.498718 -0.239630 -2.744741
H 1.662075 0.587037 -1.673743
H -1.364836 1.024698 -1.731607
H -0.195757 1.968617 -0.768647
H -1.401343 -0.664936 0.104456
C 0.123178 -0.613680 2.132473
C 0.666713 0.142728 -1.737631
C -0.459476 0.979588 -1.132488
C -0.479684 -0.089705 -0.049459
O -0.018550 0.393865 1.157366
O 0.480314 -0.882879 -0.750052
