12
pair_063_a smiles=O=COC1CC1 id=5 energy_eV=-44.658623
H 1.864437 -0.159099 2.507568
H -1.475630 -0.014667 -1.320443
H 0.021705 -1.051301 -1.187491
H 1.470897 0.861553 -1.825916
H 0.021873 1.962340 -1.972984
H -0.514214 1.500301 0.466470
C 0.982710 0.279978 2.022110
C -0.414544 -0.064195 -1.120485
C 0.466005 1.096092 -1.503725
C 0.142729 0.841656 -0.080177
O 0.004157 0.651323 2.597246
O 1.198809 0.336934 0.707478
12
pair_063_b smiles=O=COC1CC1 id=3 energy_eV=-44.654133
H 1.516826 1.063292 2.587655
H -0.134423 0.535010 -2.082789
H -0.662004 1.687811 -0.767550
H -2.091458 -0.070987 0.267850
H -1.610708 -1.269348 -1.021611
H 0.807535 -0.985185 -0.296529
C 1.485684 0.705233 1.550035
C -0.478381 0.665574 -1.066595
C -1.344220 -0.396920 -0.442064
C 0.068889 -0.243986 -0.026453
O 2.417405 0.693037 0.804323
O 0.254182 0.275888 1.272702
