15
pair_061_a smiles=O[C@H]1CO[C@@H](O)C1 id=2 energy_eV=-51.804958
H -0.395019 -0.934971 1.650567
H 1.980343 0.292499 1.297670
H 1.129561 -0.088626 -1.960886
H 1.794342 -0.976968 -0.575246
H -1.255712 1.271101 -0.917580
H -1.290854 1.272863 0.860775
H -2.170069 -0.951234 -0.487533
H 1.069201 1.697192 -0.396729
C 0.926194 -0.415369 -0.937919
C -0.882715 0.780443 -0.019108
C -1.198884 -0.707867 -0.061398
C 0.629992 0.768426 -0.026279
O -1.164906 -1.295833 1.196824
O -0.223442 -1.239992 -0.935968
O 1.051968 0.528336 1.312810
15
pair_061_b smiles=O[C@H]1CO[C@@H](O)C1 id=1 energy_eV=-51.805988
H 0.044157 1.022255 -1.612015
H -1.224243 -1.268251 -1.610416
H 1.536431 -1.189911 1.287272
H 1.887906 -0.974868 -0.441417
H -1.126386 0.185100 1.601831
H -1.868668 0.456291 0.010519
H 0.014448 2.230817 0.899077
H -0.557989 -1.893553 0.497036
C 1.233547 -0.668437 0.377383
C -0.930889 0.269651 0.532237
C 0.109393 1.349063 0.268521
C -0.214413 -0.970252 0.025902
O 0.079155 1.802836 -1.048121
O 1.328104 0.730092 0.603842
O -0.310552 -1.080833 -1.391650
