11
pair_033_a smiles=O=C=COCC=O id=0 energy_eV=-43.204456
H 0.106199 -2.011914 -0.047642
H -0.508876 -0.343834 1.975860
H 1.758033 -0.097944 -1.203392
H 0.204012 0.737644 -1.346995
C -0.998813 1.528766 1.247122
C 0.082592 -1.357130 -0.944340
C -0.238732 0.451886 1.294351
C 0.753533 -0.016272 -0.777880
O -1.678892 2.462286 1.206717
O -0.409995 -1.717150 -1.973799
O 0.930938 0.363662 0.569999
11
pair_033_b smiles=O=C=COCC=O id=5 energy_eV=-43.194927
H 1.791780 0.075937 0.873204
H 1.171816 -0.482957 -1.584128
H -0.892039 -0.704917 1.752341
H -1.072235 0.702107 0.691379
C -0.746115 0.058956 -2.161623
C 0.891151 0.387189 1.443997
C 0.123491 -0.459219 -1.317177
C -0.426753 -0.145286 0.939364
O -1.505901 0.517909 -2.901615
O 0.971845 1.089073 2.409455
O -0.307040 -1.038792 -0.145197
