12
pair_112_a smiles=O[C@@H]1C=CCO1 id=0 energy_eV=-44.729195
H -0.248022 2.016638 0.855308
H -0.776813 -1.967019 0.958265
H -2.155310 -0.019424 -0.160469
H 1.598370 -0.754437 1.193760
H 1.553848 -1.659781 -0.323594
H -0.283678 1.089457 -1.764114
C -0.388536 -1.107292 0.429525
C -1.081546 -0.130781 -0.132749
C 1.066273 -0.856548 0.239811
C -0.147367 0.895777 -0.697991
O -0.276451 2.148769 -0.095663
O 1.139230 0.344641 -0.502091
12
pair_112_b smiles=O[C@@H]1C=CCO1 id=1 energy_eV=-44.710880
H 0.832655 2.725413 0.638775
H 0.423083 -2.170548 -0.437513
H -0.148595 -0.660485 1.639521
H 1.417044 -0.271502 -2.056416
H -0.289024 -0.541437 -2.440652
H -1.031933 1.573922 0.412399
C 0.273361 -1.099897 -0.431022
C -0.017312 -0.346104 0.614762
C 0.401470 -0.247079 -1.644087
C -0.075920 1.085978 0.194521
O 0.953216 1.793650 0.826956
O 0.068182 1.058407 -1.207569
