13
pair_138_a smiles=OC1=C[C@H](O)OC1 id=0 energy_eV=-47.999046
H -1.596498 2.683140 -0.691065
H 1.116343 -2.167113 -0.840436
H 0.211281 1.236392 -1.887091
H -0.090655 1.084915 2.199699
H -1.279222 -0.093909 1.609468
H 2.032879 -0.205187 -0.500069
C -0.607788 1.292722 0.116159
C 0.171654 0.873491 -0.871921
C -0.382344 0.474691 1.340620
C 0.946799 -0.301844 -0.394206
O -1.525157 2.269199 0.171184
O 0.526506 -1.449825 -1.080130
O 0.681768 -0.381977 0.994482
13
pair_138_b smiles=OC1=C[C@H](O)OC1 id=1 energy_eV=-47.997482
H 2.072911 1.837057 -0.252727
H -0.580521 -1.395985 -1.773104
H 1.868994 -0.776037 -0.335313
H -1.521407 1.475949 -0.212477
H -1.052221 1.356996 1.493575
H -0.164662 -2.082757 0.880323
C 0.505806 0.847401 0.116777
C 0.891933 -0.411010 -0.056723
C -0.928973 0.900160 0.506717
C -0.289235 -1.306554 0.121661
O 1.164334 2.009407 0.002208
O -0.630179 -2.009045 -1.035864
O -1.336779 -0.445583 0.544947
