14
pair_130_a smiles=C[C@H]1CO[C@@H]1O id=0 energy_eV=-48.457947
H -0.199585 1.866183 -1.767803
H -0.736286 -1.992819 -0.877889
H 0.388018 -2.009785 0.482609
H -1.344950 -1.867928 0.770469
H -0.499847 1.378370 1.759276
H 0.720020 0.085854 1.910922
H 1.558913 -0.131860 -0.960664
H -1.363444 0.378170 -0.301247
C -0.534932 -1.565019 0.105543
C 0.164120 0.712849 1.206867
C 0.735534 0.559306 -0.756039
C -0.423197 -0.064866 0.030233
O 0.488455 1.217684 -1.935469
O 1.047181 1.433859 0.333194
14
pair_130_b smiles=C[C@H]1CO[C@@H]1O id=1 energy_eV=-48.428478
H 1.530891 1.209322 -2.245290
H -0.772717 -0.149191 2.322662
H -0.373728 1.471806 1.753347
H -1.686366 0.564663 0.992553
H -1.178117 -1.730968 -0.013050
H 0.516996 -2.209039 -0.303600
H -0.390080 1.349815 -1.113059
H 1.279636 -0.189251 0.868711
C -0.691931 0.478455 1.434015
C -0.184655 -1.372277 -0.292111
C 0.299604 0.514964 -0.944330
C 0.279643 -0.113989 0.445993
O 1.577854 0.849697 -1.358493
O -0.207031 -0.674008 -1.547347
