14
pair_044_a smiles=O=CC1=C(O)C[C@@H]1O id=3 energy_eV=-52.162086
H -0.327839 -2.276133 -1.294485
H 0.998230 2.724585 0.905152
H -2.215230 -1.224374 0.066813
H 2.239721 0.403875 -0.417010
H 1.619086 0.869097 -2.028800
H -0.149232 2.210618 -0.906022
C -1.930937 -0.152448 0.179190
C 0.344837 -0.546180 -0.938169
C -0.600306 0.158601 -0.271453
C 1.343371 0.553443 -1.020440
C 0.249352 1.402964 -0.285933
O -2.723415 0.632510 0.643021
O 0.461557 -1.754606 -1.463461
O 0.585871 1.865268 0.990792
14
pair_044_b smiles=O=CC1=C(O)C[C@@H]1O id=4 energy_eV=-52.179745
H -1.012358 -1.940268 -1.016115
H 0.761396 1.801048 1.151576
H -2.664988 -0.414367 0.117990
H 1.971750 0.412218 -0.665737
H 1.358361 0.690457 -2.315246
H -0.122680 2.473078 -1.409640
C -2.219370 0.606857 0.081069
C -0.071495 -0.301930 -0.977370
C -0.874040 0.644526 -0.430468
C 1.078098 0.598192 -1.264296
C 0.162590 1.723772 -0.672507
O -2.866997 1.556752 0.451511
O -0.158232 -1.586379 -1.278528
O 0.658786 2.422370 0.428257
