14
pair_109_a smiles=O=C(O)/C=C\C=C\O id=2 energy_eV=-52.653889
H 1.246795 -0.267888 2.414299
H -2.252779 2.680662 -2.621806
H 0.909647 -1.324260 0.751976
H 0.200964 -1.718469 -1.336452
H -1.179855 1.842017 -0.939559
H -0.953859 -0.497501 -2.892968
C 0.232511 0.686566 1.117814
C 0.378855 -0.501309 0.286220
C -0.058023 -0.728576 -0.973617
C -1.293857 1.256404 -1.842532
C -0.787152 0.016843 -1.954058
O -0.340124 1.711178 0.842005
O 0.815487 0.585912 2.335013
O -1.965146 1.800731 -2.866123
14
pair_109_b smiles=O=C(O)/C=C\C=C\O id=5 energy_eV=-52.739830
H 0.004307 1.437864 3.086698
H -2.228269 2.700335 -2.681836
H 1.274966 -0.772711 0.943923
H 1.089132 -1.056273 -1.297005
H -1.273094 1.946090 -0.894328
H -0.039225 0.056506 -2.952805
C 0.047822 0.934268 1.290654
C 0.646840 -0.063126 0.424094
C 0.518316 -0.216736 -0.912950
C -1.048243 1.487475 -1.848107
C -0.196710 0.454905 -1.957626
O -0.700070 1.842994 0.998398
O 0.430781 0.744934 2.571762
O -1.652590 1.980466 -2.939454
