13
pair_116_a smiles=O[C@H]1C[C@@]2(CO2)O1 id=0 energy_eV=-47.329712
H -2.262952 -0.639702 -0.831068
H 0.294377 0.763169 2.608734
H 0.736655 2.133449 1.455718
H -0.563511 1.036177 -1.230813
H 1.060603 0.385468 -1.591200
H 0.166515 -1.932880 -1.249001
C 0.635049 1.066003 1.623823
C 0.178489 0.285077 -0.964765
C -0.420239 -1.119298 -0.823175
C 0.440800 0.155854 0.514772
O -1.716508 -1.332461 -1.209354
O 1.698829 0.260336 1.086687
O -0.248106 -1.061191 0.609643
13
pair_116_b smiles=O[C@H]1C[C@@]2(CO2)O1 id=1 energy_eV=-47.319099
H -1.242836 -2.867984 -0.832169
H 1.482923 0.467978 1.924792
H 0.118437 1.705696 1.995530
H -2.080571 0.288522 0.269821
H -1.416516 1.114509 -1.174822
H -0.626807 -1.103298 -2.013191
C 0.689731 0.996448 1.405705
C -1.243916 0.351974 -0.420758
C -0.792551 -1.007707 -0.937709
C 0.125289 0.396528 0.216265
O -1.563013 -2.044757 -0.459865
O 1.027681 1.437552 0.075597
O 0.473707 -0.874091 -0.263035
