14
pair_143_a smiles=OC1=CO[C@H](O)CO1 id=3 energy_eV=-50.918076
H -3.227964 0.389273 -0.492988
H 1.656019 0.196109 1.812903
H -1.391814 -2.168691 1.086188
H 0.755137 1.316669 -1.351193
H 0.247884 -0.302402 -1.912734
H 2.055126 -0.602696 -0.335988
C -0.919714 -1.350525 0.570126
C -1.592895 -0.318890 0.071924
C 0.288883 0.379697 -1.058414
C 1.084479 -0.278504 0.050631
O -2.912890 -0.140382 0.244144
O -1.021280 0.691595 -0.624929
O 1.233811 0.647889 1.079650
O 0.456218 -1.449217 0.486828
14
pair_143_b smiles=OC1=CO[C@H](O)CO1 id=2 energy_eV=-50.880463
H -3.266419 -0.885602 0.709618
H 1.605397 0.205457 1.844622
H -1.325024 -2.236006 0.989096
H 0.690072 1.430654 -1.274592
H 0.278393 -0.181435 -1.923623
H 2.066038 -0.473075 -0.328319
C -0.884889 -1.379533 0.503554
C -1.596812 -0.362005 0.021207
C 0.266565 0.458530 -1.036571
C 1.075330 -0.211995 0.054886
O -2.931086 -0.215108 0.111925
O -1.067552 0.686549 -0.625280
O 1.164645 0.669008 1.129908
O 0.495433 -1.430967 0.422915
