10
pair_012_a smiles=O=C1C[C@H](O)O1 id=0 energy_eV=-39.247391
H -0.161173 1.336319 2.101875
H -0.343028 -1.632371 0.312767
H 1.176331 -1.308187 -0.568743
H 1.260794 0.963536 0.478206
C -0.556954 -0.133333 -1.284190
C 0.232411 -0.886208 -0.231644
C 0.291222 0.465273 0.459669
O -1.059150 -0.354523 -2.331038
O -0.331202 0.494666 1.676931
O -0.509250 1.054829 -0.613833
10
pair_012_b smiles=O=C1C[C@H](O)O1 id=1 energy_eV=-39.235149
H 0.192135 1.202661 1.634605
H 0.337012 -1.765505 -0.309472
H -0.486843 -1.054499 1.099508
H 1.692037 0.324372 -0.549790
C -1.040434 -0.118220 -0.820166
C -0.091494 -0.854595 0.103893
C 0.750657 0.415366 -0.014054
O -2.077708 -0.316385 -1.351436
O 0.988311 1.166730 1.099279
O -0.263674 1.000076 -0.892366
