13
pair_090_a smiles=C=C/C=C(\O)C=O id=2 energy_eV=-49.193653
H -0.457355 2.297611 -1.308896
H -0.256439 3.204921 0.509014
H 0.552207 -2.754066 1.219826
H 0.358157 -3.434777 -0.485895
H -0.072113 -1.196264 -1.350486
H 0.277417 -0.289053 1.605077
C -0.107201 2.226350 1.024384
C 0.354421 -2.573983 0.169288
C 0.119843 -1.344040 -0.294693
C 0.103707 -0.176417 0.541858
C -0.112894 1.076223 0.106642
O 0.039335 2.184279 2.215453
O -0.338462 1.350901 -1.202169
13
pair_090_b smiles=C=C/C=C(\O)C=O id=0 energy_eV=-49.203896
H -0.882568 0.200533 -1.823025
H -0.734647 3.014241 0.063324
H 1.572188 -2.530577 0.998490
H 1.056818 -3.467871 -0.507730
H -0.056806 -1.526913 -1.384218
H 0.884828 -0.100876 1.227914
C -0.211465 2.184477 0.573488
C 1.054923 -2.539236 0.046395
C 0.442698 -1.448963 -0.420682
C 0.396477 -0.187264 0.265165
C -0.214942 0.919285 -0.190314
O 0.305843 2.330083 1.648887
O -0.887865 1.040164 -1.358497
