13
pair_045_a smiles=C[C@@H](C=O)C(=O)O id=0 energy_eV=-48.585205
H -0.273840 -1.135885 0.866526
H 0.536552 1.976049 1.664994
H 0.345900 2.509016 -0.906580
H 0.944059 1.302748 -2.058722
H -0.657856 1.111164 -1.327503
H 2.044357 0.971869 0.074674
C 0.312062 0.971888 1.262253
C 1.056596 -0.834230 -0.424545
C 0.363131 1.446837 -1.150384
C 1.009909 0.634998 -0.018990
O -0.471212 0.259092 1.841097
O 1.821280 -1.210458 -1.264318
O 0.189772 -1.642387 0.167657
13
pair_045_b smiles=C[C@@H](C=O)C(=O)O id=2 energy_eV=-48.503178
H 0.547966 -0.095122 -1.923599
H 0.718201 2.165995 0.524769
H 1.335614 -0.399210 1.404428
H -0.233521 -0.685942 2.162648
H 0.304175 -1.696436 0.821978
H -1.214384 0.766994 0.713226
C 0.608964 1.325104 -0.183850
C -0.987708 -0.532177 -0.934103
C 0.299992 -0.682417 1.216638
C -0.385926 0.278049 0.207120
O 1.300638 1.279850 -1.171715
O -2.065827 -1.039213 -0.825963
O -0.228186 -0.685476 -2.011576
