14
pair_050_a smiles=O/C=C/C1=C(O)[C@H]1O id=1 energy_eV=-51.347561
H -0.039422 3.804372 -0.551744
H 1.411366 -2.873788 -0.018632
H -1.854148 1.360758 1.496889
H 0.719816 -1.261105 2.180147
H 1.009444 -0.747022 -0.840754
H 0.697922 2.185932 2.309047
C 0.221004 2.079484 0.121901
C 0.445084 0.847797 0.492871
C 0.910755 -1.450752 1.131894
C 0.811821 -0.499366 0.198478
C 0.012108 1.826944 1.541114
O 0.197171 2.941275 -0.895709
O 1.239891 -2.736945 0.916705
O -1.266644 1.782510 2.128289
14
pair_050_b smiles=O/C=C/C1=C(O)[C@H]1O id=0 energy_eV=-51.315960
H 0.278323 3.681757 0.084169
H 3.220963 -1.418589 -0.423824
H -2.002324 0.315597 0.075522
H 0.964804 -1.623854 1.243610
H 2.199706 0.681616 -0.375627
H -0.922724 0.824453 2.616365
C -0.295030 2.074205 0.875392
C 0.385471 0.961430 0.765845
C 1.648446 -1.098103 0.590170
C 1.484474 0.191723 0.278847
C -0.905202 0.936371 1.532726
O -0.457699 3.370388 0.618711
O 2.634445 -1.904623 0.160599
O -2.052461 0.294162 1.034065
