13
pair_013_a smiles=C=C(O)[C@H]1CC1=O id=2 energy_eV=-48.614918
H -0.345138 -2.154210 -0.441682
H 1.345874 1.452528 -0.329242
H 1.427978 0.486955 -1.916067
H 0.125576 0.909822 2.915866
H 0.024361 1.802504 1.320614
H 0.344488 -1.276872 1.708746
C -1.328068 0.100939 1.471138
C 1.114377 0.557176 -0.884889
C 0.481991 -0.449602 -0.295527
C -0.176985 0.893141 1.875795
C 0.001552 -0.438944 1.104310
O -2.507168 -0.036690 1.440953
O 0.241025 -1.605899 -0.964751
13
pair_013_b smiles=C=C(O)[C@H]1CC1=O id=1 energy_eV=-48.636215
H 0.247517 -2.050147 -1.644285
H 0.876137 1.296554 -0.871959
H 0.888810 0.060298 -2.250009
H 0.288122 1.145773 2.625403
H 0.044394 1.836304 0.950272
H 0.242303 -1.194918 1.708736
C -1.361567 0.251839 1.462106
C 0.682965 0.291495 -1.212868
C 0.223132 -0.637212 -0.379665
C -0.133398 1.015380 1.636014
C -0.110683 -0.414567 1.040310
O -2.541916 0.196468 1.572766
O -0.009268 -1.925877 -0.727694
