16
pair_006_a smiles=CC1(O)OCOCO1 id=3 energy_eV=-54.622021
H 2.140499 1.210336 -0.019446
H -0.893077 -2.407597 0.423168
H -1.875245 -0.908634 0.310601
H -1.178925 0.808444 2.424818
H 0.610968 0.641185 2.393700
H -0.746461 1.300718 -1.910023
H 0.724534 2.203498 -1.507960
H 0.838430 0.678759 -2.417703
C -0.872848 -1.322250 0.474790
C -0.321277 0.424742 1.867935
C 0.300596 1.206699 -1.633094
C 0.426567 0.428002 -0.349360
O -0.391481 -0.971785 1.730653
O 1.748379 0.340492 0.079253
O -0.008249 -0.884395 -0.541710
O -0.372863 1.060408 0.618536
16
pair_006_b smiles=CC1(O)OCOCO1 id=1 energy_eV=-54.681469
H 1.855291 -0.237573 0.413309
H -0.358122 -2.637565 0.206807
H -1.638178 -1.403402 0.457158
H -1.122947 0.186738 2.489526
H 0.635927 0.538950 2.389513
H -1.094154 1.372254 -1.734777
H 0.330282 2.361945 -1.338027
H 0.491289 0.972739 -2.432390
C -0.560345 -1.581761 0.370725
C -0.230294 0.131902 1.862275
C -0.022697 1.356292 -1.553843
C 0.279207 0.459869 -0.389425
O 0.089064 -1.204118 1.550235
O 1.625739 0.553688 -0.081190
O -0.037629 -0.877271 -0.723542
O -0.524745 0.850581 0.699950
