8
pair_041_a smiles=[CH][C][C]C id=1 energy_eV=-30.303724
H 2.334111 1.153970 -2.186039
H -0.153961 0.025404 1.858696
H -1.313065 0.825371 0.806777
H -1.342701 -0.958458 1.005147
C 2.054446 0.120606 -1.941082
C 1.136791 0.039293 -0.979405
C 0.280015 -0.216752 -0.116532
C -0.706873 -0.076663 0.916157
8
pair_041_b smiles=[CH][C][C]C id=2 energy_eV=-30.261259
H 3.145925 0.118221 -0.721891
H -1.277652 -1.200814 -1.225117
H -1.519964 -0.571970 0.397284
H -2.131235 0.356621 -0.970901
C 2.455627 0.966618 -0.617551
C 1.178473 0.598149 -0.603503
C -0.051064 0.411271 -0.608277
C -1.310143 -0.278668 -0.639080
