15
pair_122_a smiles=OCO[C@H]1C[C@@H]1O id=3 energy_eV=-50.992104
H -1.862092 -0.243328 1.418686
H 2.782790 1.576897 -0.818554
H -2.578736 -0.339520 -1.282396
H -2.238029 1.138235 -0.326174
H 1.021755 0.615147 2.026493
H 0.540250 -1.030696 1.367550
H 1.878268 -0.634420 -0.659020
H 0.037986 1.733286 0.029713
C -1.985588 0.079317 -0.473105
C 0.822510 -0.007019 1.163784
C 1.644655 0.237390 -0.055304
C 0.223191 0.664328 -0.051896
O -2.284368 -0.660793 0.666305
O 2.648357 1.191269 0.048076
O -0.651183 -0.018646 -0.882225
15
pair_122_b smiles=OCO[C@H]1C[C@@H]1O id=0 energy_eV=-50.984982
H -0.647255 -2.538923 1.138000
H 0.633337 2.813662 -1.325096
H -1.916298 -2.130209 -0.712652
H -2.391324 -0.614961 0.117059
H 1.428820 0.972627 1.525753
H 1.867133 -0.556598 0.613691
H 1.558820 0.600817 -1.540916
H -0.791397 1.023526 0.407051
C -1.585613 -1.338006 -0.037300
C 1.311955 0.371340 0.634003
C 1.135329 1.085230 -0.665992
C -0.026198 0.399603 -0.045474
O -1.282534 -1.827026 1.230185
O 1.217281 2.473128 -0.646507
O -0.512054 -0.734211 -0.691805
