12
pair_062_a smiles=O[C@@H]1C=C[C@@H]1O id=0 energy_eV=-44.043034
H 0.429348 -0.426717 -1.577004
H 0.878957 -1.224307 0.544748
H -2.979741 -1.247311 -0.440872
H -1.605670 -1.106481 2.022122
H -1.648424 1.207389 -1.037358
H -0.270264 1.224970 1.031094
C -2.077873 -0.738593 -0.122742
C -1.428814 -0.678609 1.041516
C -1.163136 0.253894 -0.813117
C -0.364324 0.256617 0.538746
O -0.428931 -0.151275 -1.922099
O 0.936275 -0.276352 0.413576
12
pair_062_b smiles=O[C@@H]1C=C[C@@H]1O id=2 energy_eV=-44.023483
H -1.766887 -0.482586 1.513261
H -0.491723 1.664171 0.888656
H -0.551441 -0.922236 -2.171706
H 1.541518 0.932956 -1.710375
H -0.212347 -1.738866 0.529561
H 1.636390 -0.123808 0.940730
C -0.121222 -0.480364 -1.282314
C 0.863295 0.392128 -1.062759
C -0.400610 -0.720101 0.172518
C 0.764778 0.304431 0.441944
O -1.667169 -0.271721 0.583594
O 0.405417 1.445995 1.156889
