15
pair_139_a smiles=CO[C@@H](C=O)CO id=1 energy_eV=-51.301754
H -0.139320 -0.389796 2.236520
H -2.045138 -0.851330 -0.958644
H 2.883204 -0.214674 -0.437893
H 1.631865 -0.967048 -1.446737
H 1.905195 0.798291 -1.522973
H -0.655112 1.751195 1.341371
H -2.131742 0.942401 0.789923
H -0.433330 1.024348 -0.966859
C -0.986159 -0.993985 -0.654467
C 1.893073 -0.080285 -0.867525
C -1.084545 0.787037 1.051340
C -0.326132 0.276132 -0.163370
O -0.461677 -2.066249 -0.716449
O -1.055268 -0.133235 2.107138
O 1.005085 0.117198 0.208624
15
pair_139_b smiles=CO[C@@H](C=O)CO id=4 energy_eV=-51.222328
H -0.094741 0.166682 -2.592092
H 0.700323 -2.230032 -0.461994
H -0.316840 1.129197 2.310649
H -2.019012 1.305445 1.820979
H -1.327021 -0.314914 2.039934
H 2.178561 0.250622 -0.946403
H 0.986491 1.549151 -1.080850
H 0.962904 -0.185117 0.927135
C -0.134234 -1.523066 -0.280990
C -1.122300 0.703924 1.698580
C 1.123206 0.464876 -1.106960
C 0.302059 -0.106449 0.050344
O -1.274992 -1.876420 -0.347725
O 0.804391 -0.072213 -2.368098
O -0.768794 0.738313 0.337491
