13
pair_046_a smiles=O=C1C[C@]1(O)CO id=0 energy_eV=-47.002583
H 1.457235 1.150333 1.309702
H -1.139375 0.938027 -1.825868
H 1.693314 -0.371690 -1.036895
H 1.235154 1.330588 -0.945594
H -1.459330 -1.901748 0.133255
H 0.103340 -1.675898 1.077836
C -1.113446 0.141263 0.844855
C 1.154418 0.363196 -0.435948
C -0.703734 -1.221171 0.512531
C -0.303449 -0.028035 -0.384603
O -1.749560 0.866874 1.543970
O 1.771606 0.386517 0.824844
O -0.946173 0.021744 -1.618086
13
pair_046_b smiles=O=C1C[C@]1(O)CO id=1 energy_eV=-46.986401
H 1.967874 0.246558 1.160334
H -1.113072 -0.008604 -2.047140
H 1.333134 -0.461090 -1.469183
H 1.323045 1.166401 -0.782617
H -1.814481 -1.716353 0.110223
H -0.106166 -2.015657 0.732740
C -0.900814 0.005274 1.097040
C 1.103977 0.116763 -0.568078
C -0.867210 -1.299911 0.437775
C -0.374621 -0.009803 -0.282088
O -1.187765 0.638309 2.062462
O 1.920321 -0.395516 0.451518
O -1.181223 0.545359 -1.265181
