12
pair_101_a smiles=CCCO id=3 energy_eV=-40.538391
H -0.309891 2.147233 0.147120
H 1.495237 -1.365713 1.135829
H 1.759862 0.147332 0.267126
H 1.332583 -1.314951 -0.619584
H -1.937867 0.593984 -0.538392
H -0.683506 0.012273 -1.631245
H -0.496216 0.071860 1.408336
H -0.914523 -1.333171 0.459821
C 1.150888 -0.755594 0.299986
C -0.855024 0.475218 -0.657809
C -0.319002 -0.416266 0.443441
O -0.222541 1.737794 -0.714630
12
pair_101_b smiles=CCCO id=2 energy_eV=-40.540993
H 0.966841 0.019847 0.537030
H -1.812118 1.515577 -1.387369
H -0.393131 1.473447 -0.356440
H -1.846472 0.583243 0.108527
H -0.556827 -1.668793 0.212286
H 0.433443 -2.144171 -1.163583
H -0.088878 -0.048020 -2.322761
H -1.554650 -0.915158 -1.888424
C -1.219749 0.870814 -0.739121
C 0.084841 -1.284225 -0.591334
C -0.712018 -0.351597 -1.479897
O 1.242856 -0.683382 -0.050773
