13
pair_094_a smiles=O/C=C\[C@H]1O[C@H]1O id=1 energy_eV=-47.318985
H 1.953602 1.666965 0.421756
H -1.403536 -0.959998 -1.485504
H 0.050167 3.001468 -1.161223
H -1.282569 1.037347 -0.894747
H 0.296651 -2.333127 0.272225
H 1.010008 -0.013417 0.940532
C 0.416561 2.163385 -0.584906
C -0.303826 1.053190 -0.434476
C -0.306515 -1.477905 -0.015215
C 0.100843 -0.117085 0.347619
O 1.638118 2.421285 -0.082327
O -1.026506 -1.770584 -1.136339
O -0.946837 -0.818691 1.045338
13
pair_094_b smiles=O/C=C\[C@H]1O[C@H]1O id=2 energy_eV=-47.308414
H -0.244719 -3.066576 1.229798
H -0.990119 1.944561 0.238128
H -1.809724 -2.026864 0.178275
H -1.390197 0.062511 -0.922867
H 1.797325 2.069461 0.322434
H 1.585788 -0.395792 -0.222449
C -0.828997 -1.568349 0.215286
C -0.579969 -0.408497 -0.383639
C 0.867147 1.676559 -0.074769
C 0.731156 0.252501 -0.392555
O 0.119743 -2.245591 0.901868
O -0.181446 2.455463 0.321936
O 0.924011 1.250613 -1.411446
