13
pair_000_a smiles=C[C@H]1O[C@@H](O)C1=O id=1 energy_eV=-47.727413
H -2.293402 2.162561 -0.421766
H 1.525197 -1.815725 1.078720
H 0.290555 -2.626249 0.110827
H -0.189634 -1.559060 1.443460
H -0.463276 1.773760 -1.459534
H 1.267553 -0.699849 -1.106949
C 0.613539 0.870988 0.249978
C 0.531653 -1.704920 0.641732
C -0.654108 1.189583 -0.552240
C 0.532461 -0.542400 -0.309901
O 1.294761 1.455077 1.024315
O -1.697513 1.702074 0.168559
O -0.757788 -0.205840 -0.867201
13
pair_000_b smiles=C[C@H]1O[C@@H](O)C1=O id=0 energy_eV=-47.736256
H -0.775937 -1.106705 2.012889
H 2.236536 0.439059 -1.242193
H 1.560020 -1.176022 -1.477743
H 1.914035 -0.597864 0.155556
H -2.433087 0.374431 0.319608
H -0.087342 0.810948 -1.675218
C -0.297994 0.982895 0.495395
C 1.551308 -0.299896 -0.827794
C -1.455197 -0.028462 0.590983
C 0.152360 0.252259 -0.765599
O 0.120231 1.855070 1.181748
O -1.626971 -0.760227 1.731655
O -0.857961 -0.745485 -0.499288
