11
pair_105_a smiles=C/C=C1\CO1 id=0 energy_eV=-40.480564
H -1.470642 -0.484608 -1.225676
H -1.215635 0.305189 1.623384
H -2.441391 0.876023 0.500065
H -0.916687 1.736783 0.642335
H 2.507728 0.297704 -0.348148
H 2.141340 -1.218042 0.633581
C -0.807710 -0.115136 -0.453555
C 0.459629 -0.453039 -0.533203
C -1.370088 0.744678 0.636865
C 1.831587 -0.524359 -0.141251
O 1.281870 -1.165193 -1.334397
11
pair_105_b smiles=C/C=C1\CO1 id=1 energy_eV=-40.524532
H 1.551669 -0.084515 1.214757
H 2.180044 0.333868 -1.225643
H 0.546143 -0.106347 -1.725033
H 1.655734 -1.339387 -1.123949
H -2.448240 -0.562002 0.347405
H -2.229552 1.255680 0.130909
C 0.840218 -0.061704 0.396939
C -0.418604 0.162482 0.701177
C 1.326846 -0.305489 -0.991949
C -1.823030 0.314482 0.482527
O -1.181227 0.392932 1.792862
