16
pair_015_a smiles=C[C@@H](O)[C@@H](C)O id=3 energy_eV=-52.330784
H 0.238172 0.892715 -2.248480
H 1.878740 -0.515504 -0.734003
H -2.360549 0.249704 -1.702942
H -1.585685 1.606262 -0.866811
H -2.349775 0.316979 0.065470
H -0.375766 -1.256299 1.727344
H 0.580339 0.032848 2.464712
H -1.048382 0.379952 1.871459
H -0.646655 -1.302079 -0.763308
H 0.605750 1.243887 0.282525
C -1.769707 0.528672 -0.831656
C -0.140715 -0.191373 1.679722
C -0.464459 -0.226440 -0.827422
C 0.444222 0.154570 0.332919
O 0.233591 -0.046732 -2.052971
O 1.675629 -0.514245 0.205690
16
pair_015_b smiles=C[C@@H](O)[C@@H](C)O id=2 energy_eV=-52.307983
H 1.029297 0.616049 -2.024588
H 1.739005 1.420355 -0.051210
H -2.177243 -0.626981 -1.878768
H -2.219861 0.695016 -0.704079
H -2.157417 -0.986169 -0.147026
H 0.647285 -1.705696 1.222748
H 0.520781 -0.422577 2.432900
H -0.936754 -1.041486 1.644106
H 0.107014 -1.230217 -1.122504
H -0.258096 1.159863 0.693218
C -1.806591 -0.293459 -0.910805
C 0.113101 -0.792958 1.493345
C -0.302152 -0.229817 -0.926631
C 0.268354 0.242753 0.407523
O 0.072629 0.649919 -1.967647
O 1.653960 0.524121 0.272134
