13
pair_148_a smiles=O=CC1=CO[C@H](O)C1=O id=0 energy_eV=-52.175278
H 1.196818 2.012395 -0.908209
H -1.521377 -1.843506 -1.488300
H -1.493911 0.376595 1.801601
H 2.274303 0.146137 0.863688
C -1.773854 -1.234636 -0.602425
C 0.684859 -0.380263 -0.569309
C -0.674491 0.245366 1.108207
C -0.654896 -0.501573 -0.024250
C 1.418252 0.601777 0.367400
O -2.901932 -1.188367 -0.175476
O 1.179167 -0.869397 -1.552796
O 1.829308 1.754336 -0.233137
O 0.437751 0.881138 1.413004
13
pair_148_b smiles=O=CC1=CO[C@H](O)C1=O id=2 energy_eV=-52.167786
H 2.790929 1.813155 -0.358638
H -1.730049 -1.856779 -1.482615
H -1.304495 0.580159 1.625205
H 2.304032 -0.128423 0.491709
C -1.870366 -1.202577 -0.603936
C 0.618132 -0.488008 -0.846509
C -0.552637 0.334318 0.888298
C -0.675024 -0.482555 -0.185464
C 1.508880 0.439643 0.002984
O -2.941345 -1.112413 -0.054913
O 0.994091 -1.062540 -1.832858
O 1.969604 1.490204 -0.731374
O 0.629419 0.893098 1.071505
