13
pair_072_a smiles=CC(=O)[C@]1(O)CO1 id=0 energy_eV=-47.783844
H -1.487471 0.776279 -1.715621
H 2.136995 -0.242236 -0.450017
H 2.250721 1.378968 0.276376
H 1.556029 -0.006719 1.179747
H -2.092666 -1.348042 0.972616
H -0.546583 -0.780687 1.809559
C 0.318861 0.797906 -0.389371
C 1.645888 0.478953 0.208696
C -1.077211 -0.976965 0.882397
C -0.755322 -0.260968 -0.354237
O 0.071000 1.830541 -0.964713
O -1.710070 -0.068496 -1.300398
O -0.310171 -1.578535 -0.155034
13
pair_072_b smiles=CC(=O)[C@]1(O)CO1 id=2 energy_eV=-47.790398
H -1.201265 -1.635814 1.332084
H 1.398943 0.918458 -0.825418
H 2.563453 -0.150627 0.007467
H 1.827712 1.201199 0.864944
H -2.149610 0.182211 -1.550362
H -0.417735 0.765611 -1.795426
C 0.564725 -0.463539 0.613731
C 1.649584 0.430628 0.112907
C -1.187371 0.423202 -1.110356
C -0.851158 -0.270978 0.125099
O 0.753432 -1.313564 1.449658
O -1.704299 -1.184591 0.637495
O -1.246410 1.097805 0.138177
