8
pair_025_a smiles=CC=C=O id=1 energy_eV=-31.319397
H -0.668139 -1.387905 -0.578013
H 1.317619 -0.618812 0.997374
H -0.239974 -0.271621 1.746483
H 0.652534 1.010214 0.934135
C -0.493197 0.469730 -1.366011
C -0.303466 -0.385187 -0.396234
C 0.394129 -0.045866 0.888440
O -0.659507 1.229447 -2.226175
8
pair_025_b smiles=CC=C=O id=0 energy_eV=-31.307476
H -0.268416 1.262278 1.030863
H -1.254120 -0.383483 -1.069229
H -0.324238 1.066650 -1.441768
H 0.474799 -0.497161 -1.398058
C 0.574429 -0.553032 1.297563
C 0.007138 0.342388 0.533655
C -0.292879 0.111664 -0.921250
O 1.083288 -1.349303 1.968225
