12
pair_117_a smiles=OC[C@@H]1O[C@H]1O id=0 energy_eV=-42.648296
H 1.228275 1.141560 1.851128
H 0.105790 -2.277363 -1.463193
H -1.480822 0.740428 1.241979
H -0.394524 1.744004 0.270036
H -0.305811 0.469337 -1.880423
H -0.094273 -1.287818 0.690713
C -0.445202 0.868099 0.925521
C 0.016734 -0.383868 -1.294527
C -0.013543 -0.339654 0.159791
O 0.305405 1.061064 2.099515
O -0.137746 -1.531458 -2.017503
O 1.215717 -0.204331 -0.583038
12
pair_117_b smiles=OC[C@@H]1O[C@H]1O id=2 energy_eV=-42.648872
H 1.413151 -0.207743 2.145657
H -0.354929 1.399550 -2.663178
H -0.181422 -2.114807 0.845707
H -0.779081 -0.537206 1.381935
H -1.240319 0.720693 -0.650716
H 1.349895 -0.998284 -0.795460
C 0.104795 -1.077529 1.025901
C -0.245839 0.462858 -1.008284
C 0.578016 -0.460516 -0.252249
O 1.109859 -1.106732 2.008993
O -0.083479 0.530067 -2.364793
O 0.795074 0.960421 -0.199685
