14
pair_059_a smiles=C[C@]1(O)C[C@H]1O id=0 energy_eV=-48.165215
H -0.350074 2.014021 -0.513487
H 2.049264 1.282523 -0.163003
H -2.135450 0.429917 0.792848
H -2.242449 -0.605097 -0.642793
H -1.530262 -1.229180 0.849595
H 1.449289 -0.635719 -1.365509
H 0.583910 -1.936906 -0.413047
H 0.769773 -0.448976 1.655086
C -1.624253 -0.344844 0.217738
C 0.799922 -0.883449 -0.534871
C -0.273894 0.118880 -0.227347
C 0.915354 -0.007869 0.677192
O -0.267192 1.235376 -1.068838
O 1.856063 1.011323 0.736436
14
pair_059_b smiles=C[C@]1(O)C[C@H]1O id=1 energy_eV=-48.203300
H -0.497577 -1.432073 1.536579
H 1.735021 0.332127 1.521311
H -1.387244 -1.543529 -1.091007
H 0.320260 -1.702117 -1.530539
H -0.599982 -0.274014 -2.030980
H -1.405720 1.466896 -0.237855
H -0.851397 1.166908 1.484710
H 1.044366 1.356248 -0.948795
C -0.452480 -0.994487 -1.226731
C -0.680389 1.014958 0.426045
C -0.055220 -0.297913 0.035476
C 0.767651 0.946992 0.014426
O 0.301122 -1.153898 1.086568
O 1.761588 1.113902 0.960792
