10
pair_145_a smiles=CC(C)=O id=0 energy_eV=-36.419247
H -0.363483 0.913530 1.863459
H 0.875895 1.597892 0.822326
H 1.000124 -0.098207 1.316952
H 0.984465 -0.764362 -1.257373
H -0.688716 -1.042308 -1.822020
H -0.093053 -1.750392 -0.294846
C -0.504967 0.335962 -0.187938
C 0.305768 0.691449 1.033729
C -0.058595 -0.877782 -0.952747
O -1.457439 0.994219 -0.521542
10
pair_145_b smiles=CC(C)=O id=1 energy_eV=-36.423237
H 1.595140 0.189517 0.630526
H 0.591182 1.078869 1.815542
H 0.448749 -0.679358 1.632448
H -0.646340 -1.464921 -0.871657
H 0.656812 -0.487488 -1.519892
H -1.042027 -0.093428 -1.926502
C -0.468359 0.434365 0.067523
C 0.613484 0.261207 1.099724
C -0.368067 -0.444616 -1.150142
O -1.380572 1.205853 0.222430
