14
pair_017_a smiles=C[C@]1(O)O/C1=C\C=O id=1 energy_eV=-51.961754
H 1.529469 -0.235495 -1.898409
H -0.971528 0.504358 2.950391
H -2.496629 0.849839 0.238248
H -0.568596 -1.973120 -2.117328
H -0.535451 -2.632837 -0.468812
H 0.969400 -2.442391 -1.379866
C -1.817073 0.849183 2.324813
C -1.701671 0.553549 0.906145
C -0.638488 -0.062823 0.399075
C -0.011492 -2.002051 -1.181163
C 0.156966 -0.617400 -0.649673
O -2.754558 1.426780 2.820236
O 0.832391 0.245504 -1.443665
O 0.525711 -0.568733 0.805615
14
pair_017_b smiles=C[C@]1(O)O/C1=C\C=O id=0 energy_eV=-51.985756
H 1.392332 0.960060 -1.028506
H -0.826557 0.646351 2.865777
H -2.050074 1.245154 0.046378
H -0.334697 -1.795442 -2.251265
H -0.603787 -2.499036 -0.641588
H 1.014053 -2.523570 -1.374699
C -1.545690 1.134243 2.180333
C -1.371168 0.819212 0.770427
C -0.396809 0.020522 0.341369
C 0.095808 -1.946547 -1.262009
C 0.409487 -0.627486 -0.646537
O -2.401057 1.871905 2.605536
O 1.336134 0.059161 -1.355290
O 0.633022 -0.666812 0.840676
