14
pair_039_a smiles=O=CO[C@]1(O)C[C@@H]1O id=6 energy_eV=-50.703648
H -1.651048 -1.083870 0.037883
H 1.616716 0.116820 -1.585564
H -0.222511 1.744345 1.515054
H 1.206228 -1.166104 1.970481
H 2.020231 0.261454 1.147844
H 0.874837 -2.230591 -0.284327
C -0.258348 2.018774 0.450513
C 1.292635 -0.537736 1.094602
C 0.058013 -0.280628 0.300102
C 1.099160 -1.171083 -0.271982
O -0.440027 3.110766 0.027596
O -1.127124 -0.770523 0.779546
O -0.061408 0.954188 -0.362926
O 1.863352 -0.780610 -1.351881
14
pair_039_b smiles=O=CO[C@]1(O)C[C@@H]1O id=3 energy_eV=-50.670918
H -1.787456 -0.172580 1.084015
H 1.590664 -0.512299 -2.002269
H 0.280264 1.516527 1.838466
H 0.416977 -1.636071 1.743712
H 1.738235 -0.413964 1.373765
H 0.240917 -2.115740 -0.718939
C 0.311801 2.027592 0.861627
C 0.834792 -0.915663 1.053855
C -0.107007 -0.152366 0.173468
C 0.756022 -1.207017 -0.422333
O 0.448849 3.196474 0.713717
O -1.450349 -0.418843 0.219889
O 0.190269 1.170882 -0.168969
O 1.871969 -0.865555 -1.156926
