14
pair_048_a smiles=O=C[C@H]1C=C(O)CO1 id=2 energy_eV=-52.365063
H 1.505272 2.368049 -1.573846
H -2.631275 -0.421683 -0.838710
H 0.752808 -1.263266 -1.375458
H 0.468225 2.154290 0.791240
H -0.822145 2.374750 -0.410099
H -0.411664 -1.292929 1.064406
C -1.968774 -1.191884 -0.391357
C 0.607238 0.842241 -0.908896
C 0.332940 -0.451237 -0.803663
C -0.183813 1.629105 0.080427
C -0.714005 -0.628167 0.248199
O -2.218096 -2.360795 -0.455669
O 1.471856 1.427189 -1.751612
O -0.971236 0.675432 0.752543
14
pair_048_b smiles=O=C[C@H]1C=C(O)CO1 id=3 energy_eV=-52.394611
H 1.178773 1.198138 -2.850358
H -2.444417 0.483984 0.562079
H -0.576951 -0.649771 -2.280994
H 1.913815 0.644333 0.645577
H 0.653474 1.892025 0.671625
H -0.563045 -1.855259 0.133612
C -2.207856 -0.495651 0.098291
C 0.670818 0.676267 -1.105121
C -0.223483 -0.279382 -1.330664
C 0.880625 0.868820 0.356746
C -0.721853 -0.780364 -0.012401
O -3.059870 -1.231544 -0.309386
O 1.384237 1.438551 -1.944746
O -0.010376 -0.042940 0.966446
