15
pair_028_a smiles=C=C(O)O[C@@H](C)O id=1 energy_eV=-51.608902
H 1.406944 -1.870362 0.553371
H -1.893225 -0.006045 -1.844261
H -1.063728 -0.903474 2.834155
H -1.792933 0.246074 1.559577
H 1.241323 1.563808 -1.483830
H -0.245625 2.248638 -2.170311
H 0.285529 0.619103 -2.633845
H -0.621626 1.433130 0.176224
C -1.045646 -0.473425 1.845612
C -0.123828 -0.881734 0.981796
C 0.228386 1.336899 -1.812436
C -0.577942 0.759105 -0.679995
O 0.760890 -1.853155 1.263884
O -1.896030 0.504260 -1.030918
O 0.091840 -0.422288 -0.272625
15
pair_028_b smiles=C=C(O)O[C@@H](C)O id=0 energy_eV=-51.643749
H 0.006026 -2.795797 -0.325546
H -1.474411 0.997424 -0.489392
H -2.276957 -1.220734 1.816431
H -1.466513 0.419457 1.488428
H 1.692340 0.745810 -1.910725
H 2.526507 0.684726 -0.342573
H 1.774086 2.194671 -0.892671
H 0.383311 1.035221 0.831890
C -1.533338 -0.639229 1.296755
C -0.670147 -1.257135 0.488875
C 1.683734 1.110485 -0.884255
C 0.396595 0.725805 -0.219231
O -0.702069 -2.580189 0.287287
O -0.661085 1.279329 -0.918610
O 0.321919 -0.699844 -0.226664
