13
pair_019_a smiles=O=C(/C=C/O)CO id=1 energy_eV=-48.003723
H 1.740697 -1.206242 -2.646814
H -1.337056 0.845276 2.244372
H -0.942477 -0.671429 -1.997060
H 1.686911 -0.455679 -0.406876
H 1.195507 1.224542 1.537447
H 0.976983 -0.416488 2.139722
C -0.241980 0.074993 0.467937
C 0.119937 -0.729019 -1.798713
C 0.621850 -0.394777 -0.603532
C 0.436571 0.462964 1.761093
O -1.451349 0.176998 0.389171
O 0.803671 -1.155544 -2.857753
O -0.480237 0.929453 2.687550
13
pair_019_b smiles=O=C(/C=C/O)CO id=5 energy_eV=-47.983997
H -1.146951 3.079799 1.854175
H 1.569886 -1.201410 -2.023173
H 0.157186 2.255877 0.360248
H -1.133215 -0.410331 1.171593
H -0.741153 -1.966295 -0.912228
H 0.616846 -2.261101 0.170822
C 0.390056 -0.228715 -0.404986
C -0.500995 1.585550 0.902908
C -0.486385 0.276203 0.640744
C 0.306667 -1.702820 -0.725351
O 1.170943 0.459292 -1.035944
O -1.300373 2.135115 1.819334
O 1.097488 -2.021162 -1.818140
