13
pair_030_a smiles=COC(=O)C(C)=O id=0 energy_eV=-48.191746
H -2.896838 -0.247144 -1.482554
H -1.855646 1.142180 -1.062937
H -2.342208 -0.011242 0.196147
H 2.653783 0.185999 0.289059
H 1.971969 -0.837214 1.516448
H 2.072413 0.927924 1.813821
C 0.199470 -0.723565 -0.603964
C 0.541899 0.340480 0.465744
C -2.082751 0.101575 -0.853180
C 1.894029 0.155783 1.071409
O 1.038157 -1.525984 -0.904456
O -0.210678 1.231938 0.753091
O -0.983598 -0.740730 -1.198626
13
pair_030_b smiles=COC(=O)C(C)=O id=3 energy_eV=-48.199844
H 1.795091 -1.748576 0.154947
H 2.577442 -1.170800 -1.341400
H 2.002503 -0.008289 -0.125536
H -2.416266 1.028766 0.726774
H -1.184168 2.050847 0.024301
H -1.179500 1.742764 1.796678
C -0.532731 -0.450807 -0.814630
C -0.535728 0.098801 0.620696
C 1.807904 -0.967775 -0.601290
C -1.368765 1.321741 0.813256
O -1.557581 -0.444732 -1.435152
O 0.011579 -0.496637 1.510559
O 0.580218 -0.955302 -1.329203
