13
pair_018_a smiles=O=C1O[C@H]2C=C(O)O[C@@H]12 id=0 energy_eV=-52.048187
H 1.214820 1.610308 1.572539
H 2.384076 -0.342813 0.362615
H -1.389799 -2.305549 0.243689
H 1.177524 -2.713167 -0.229537
C -0.802717 -1.260617 -1.650247
C 0.330980 0.145711 0.827255
C 1.335766 -0.584399 0.316508
C -0.762253 -1.505406 -0.138417
C 0.734028 -1.731068 -0.376743
O -1.615340 -0.948414 -2.450456
O 0.315072 1.286019 1.494654
O -0.909486 -0.345172 0.662225
O 0.506955 -1.546015 -1.838677
13
pair_018_b smiles=O=C1O[C@H]2C=C(O)O[C@@H]12 id=1 energy_eV=-52.078205
H 1.824872 0.961168 1.325348
H 2.300628 -1.451305 -1.449836
H -1.073069 -2.088842 1.062184
H 0.269271 -3.182804 -0.928558
C -1.516808 -0.979869 -0.835611
C 1.338734 -0.430400 0.182186
C 1.453551 -1.334366 -0.797563
C -0.611302 -1.469263 0.298842
C 0.202421 -2.101495 -0.833239
O -2.483844 -0.305516 -0.932800
O 2.191772 0.499530 0.566340
O 0.191345 -0.468594 0.903436
O -0.825060 -1.618722 -1.806367
