13
pair_023_a smiles=CCCC=O id=2 energy_eV=-45.558926
H 0.102120 1.140834 -2.004320
H 0.730003 -1.554345 0.480162
H 0.923607 -0.919454 2.106253
H 2.034105 -0.433988 0.836251
H -1.418713 -0.818141 -0.170439
H -1.766911 0.909980 -0.345652
H -0.466724 0.829026 1.602833
H 0.644163 1.367725 0.376333
C -0.402520 0.184987 -1.741388
C 0.990791 -0.661806 1.049796
C -0.971415 0.158181 -0.358589
C 0.062702 0.505019 0.708557
O -0.461208 -0.708018 -2.539797
13
pair_023_b smiles=CCCC=O id=3 energy_eV=-45.607075
H 1.238041 0.600199 1.918617
H -0.577720 1.022763 -2.200695
H -0.710837 1.588976 -0.534754
H -1.653559 0.204907 -1.066257
H 1.028026 -1.577897 0.814401
H -0.728886 -1.396078 0.646061
H 1.392441 0.295318 -0.778594
H 0.527045 -1.046425 -1.489413
C 0.237906 0.166247 1.699177
C -0.686546 0.699873 -1.165583
C 0.222398 -0.865195 0.614206
C 0.437323 -0.236346 -0.764128
O -0.725633 0.543659 2.306961
