13
pair_033_a smiles=O=C/C=C([O-])/C=C/O id=7 energy_eV=-51.721729
H 1.531706 -0.157350 -1.893523
H -2.380819 0.875837 3.222687
H 0.076069 2.041428 1.787167
H 1.041646 1.916065 -0.066006
H -0.090252 -0.912023 -0.491950
C -1.580316 1.630177 3.082905
C -0.742518 1.358670 1.987235
C -0.918727 0.232131 1.156279
C 0.887463 0.931996 -0.486865
C 0.021034 0.053291 0.001267
O -1.510479 2.584919 3.871345
O -1.790085 -0.653649 1.267102
O 1.692509 0.734459 -1.576652
13
pair_033_b smiles=O=C/C=C([O-])/C=C/O id=8 energy_eV=-51.709614
H 2.662874 -1.235496 0.032904
H -2.101439 3.160496 0.756754
H -0.952349 0.602715 2.023733
H 0.215299 -1.028754 1.391623
H 1.851721 0.847163 -0.412343
C -2.096111 2.339198 1.501546
C -1.024604 1.443636 1.341362
C -0.042412 1.606995 0.341674
C 1.014309 -0.657587 0.764730
C 1.022908 0.557480 0.231773
O -2.994222 2.298821 2.355518
O 0.044326 2.539852 -0.481230
O 1.983628 -1.609623 0.598138
