10
pair_054_a smiles=C/C([O-])=C\O id=0 energy_eV=-37.797871
H 0.952711 1.618362 -1.142328
H -1.351705 1.834973 0.035322
H 0.992897 -0.910576 -0.764092
H -0.042027 -2.093508 0.078033
H 1.218597 -1.258515 0.972247
C -0.631881 1.055444 -0.192704
C -0.528052 -0.067183 0.587968
C 0.479340 -1.136430 0.172979
O -1.193443 -0.300403 1.644943
O 0.103562 1.257835 -1.392367
10
pair_054_b smiles=C/C([O-])=C\O id=2 energy_eV=-37.775845
H -1.556363 0.690029 -1.315810
H -1.867025 0.398459 1.265401
H 1.976388 -0.865402 0.044994
H 1.531934 0.572075 -0.874692
H 0.626888 -0.929652 -1.130683
C -1.131208 0.177522 0.498227
C 0.208470 0.077499 0.776689
C 1.130327 -0.319122 -0.377834
O 0.758068 0.295046 1.900460
O -1.677480 -0.096455 -0.786753
