13
pair_048_a smiles=C=C(O)/C(C=O)=C\[O-] id=6 energy_eV=-51.871731
H -1.880841 0.615624 -0.529946
H -1.071575 0.656240 -1.866044
H -0.896590 0.294796 2.752191
H 0.819439 -0.287777 2.253026
H 2.116698 -0.910237 -1.278935
C -0.064642 0.163644 -1.773340
C -0.163472 0.065489 1.989495
C -0.495706 0.193066 0.695839
C 1.641506 -0.706364 -0.301226
C 0.351663 -0.112728 -0.447540
O 0.516076 -0.043000 -2.840547
O 2.242801 -0.998022 0.731525
O -1.767253 0.646665 0.422330
13
pair_048_b smiles=C=C(O)/C(C=O)=C\[O-] id=4 energy_eV=-51.880787
H -0.536738 2.260468 0.033853
H 0.188295 1.951875 -1.357354
H -2.259756 0.092643 2.082197
H -1.308394 -1.389536 1.429443
H 1.576058 -1.365206 -1.075434
C 0.701593 0.953123 -1.325044
C -1.517916 -0.332421 1.418623
C -0.834933 0.470539 0.589309
C 0.781132 -1.243983 -0.316169
C 0.215927 0.066295 -0.332963
O 1.582654 0.782497 -2.169842
O 0.493062 -2.196424 0.406563
O -1.148109 1.812402 0.621875
