11
pair_081_a smiles=O=C[C@H]([O-])CO id=1 energy_eV=-41.454651
H -0.232158 -2.096776 1.151192
H -1.028325 1.165206 0.275048
H -1.230655 -0.988159 -1.136667
H 0.210799 -1.989382 -1.389031
H 1.340520 -0.790647 0.481554
C -0.192973 0.647753 0.798398
C -0.351572 -1.414396 -0.643126
C 0.545075 -0.285640 -0.133973
O 0.136247 0.988345 1.917175
O 0.984816 0.563546 -1.070926
O -0.807284 -2.273916 0.402998
11
pair_081_b smiles=O=C[C@H]([O-])CO id=5 energy_eV=-41.439400
H 1.120455 0.140970 -0.805128
H -0.664405 1.359268 1.288254
H 0.714991 -0.806053 1.462096
H 0.287983 -2.195742 0.451311
H -1.313325 -0.797588 -0.812472
C -0.988045 1.008820 0.281317
C 0.372851 -1.105908 0.462328
C -1.006521 -0.500148 0.216231
O -1.445131 1.794632 -0.528377
O -1.904678 -0.740012 1.190020
O 1.342405 -0.747706 -0.524666
