11
pair_026_a smiles=C=C(O)/C=C/[O-] id=5 energy_eV=-43.337906
H -1.040080 1.589186 1.625133
H 0.130535 0.398159 2.932071
H 0.667762 -1.237393 2.234021
H 1.612594 -1.751060 0.281847
H -0.410398 -0.033037 -1.282133
C 0.224065 -0.265326 2.077362
C -0.097817 0.169482 0.826505
C 1.047514 -1.462939 -0.636924
C 0.141090 -0.423613 -0.434932
O 1.298814 -2.074453 -1.692170
O -0.777216 1.375480 0.728179
11
pair_026_b smiles=C=C(O)/C=C/[O-] id=3 energy_eV=-43.329247
H 0.089005 2.081412 1.682801
H 0.205841 0.506543 3.047128
H 0.625389 -1.167559 2.360752
H 0.385836 -2.229441 0.478782
H 0.266623 0.341513 -1.215186
C 0.397418 -0.126437 2.185868
C 0.252467 0.365500 0.923274
C 0.369502 -1.668394 -0.486282
C 0.307440 -0.285568 -0.332590
O 0.399780 -2.330237 -1.540997
O 0.006670 1.724713 0.796892
