14
pair_067_a smiles=C/C([O-])=C\C(=O)OC=O id=4 energy_eV=-55.612591
H -1.236629 -1.582525 -2.645800
H -1.204403 1.224810 0.508348
H 2.083695 -0.486631 -0.091640
H 2.887947 0.403144 1.253875
H 2.671643 1.145141 -0.337271
C -2.075271 -0.928405 -2.379381
C -0.377324 -0.045825 -0.963178
C -0.290268 0.771279 0.154728
C 0.904394 1.076791 0.864909
C 2.216266 0.475925 0.398131
O -3.166027 -0.986118 -2.891669
O 0.426218 -0.700500 -1.604184
O 0.920263 1.826127 1.847808
O -1.774989 -0.064744 -1.429978
14
pair_067_b smiles=C/C([O-])=C\C(=O)OC=O id=1 energy_eV=-55.615932
H -2.204740 -0.711901 -1.889991
H 0.313332 1.934630 0.271487
H 2.705448 -1.309789 1.685591
H 2.058564 -1.458259 0.025260
H 0.985837 -1.696041 1.373228
C -2.253731 0.383280 -1.928413
C -0.395321 0.082168 -0.465769
C 0.468541 0.866148 0.282284
C 1.552917 0.370868 1.060559
C 1.848272 -1.117420 1.041122
O -3.054584 1.001617 -2.586383
O -0.513235 -1.117617 -0.639843
O 2.274572 1.105776 1.743009
O -1.341213 0.965765 -1.177747
