11
pair_028_a smiles=CC1=C([O-])[C@H]1O id=1 energy_eV=-42.519028
H -0.474837 -0.806142 2.097352
H 1.597273 -0.041835 -1.784373
H 2.250105 0.017292 -0.152606
H 1.482454 1.446199 -0.838120
H -1.574518 1.230939 0.529851
C -1.049006 -0.782067 -0.441178
C 0.089016 -0.079260 -0.280296
C 1.413749 0.352679 -0.780264
C -1.012253 0.289145 0.605071
O -1.755517 -1.644646 -0.992011
O -0.966466 0.017696 2.036574
11
pair_028_b smiles=CC1=C([O-])[C@H]1O id=0 energy_eV=-42.536758
H 0.787998 -1.684355 -1.356837
H -1.460256 1.759461 0.225916
H -2.043043 0.367232 1.141842
H -2.093863 0.347567 -0.619612
H 1.751118 0.857816 -0.715853
C 0.878308 -0.475950 0.940724
C -0.143838 0.057763 0.248229
C -1.494558 0.660758 0.242719
C 1.126713 -0.012687 -0.467469
O 1.389852 -0.967843 1.962509
O 1.301569 -0.909762 -1.602169
