16
pair_049_a smiles=O=C/C(O)=C(/[O-])CCO id=6 energy_eV=-58.138020
H -1.888286 -2.194321 -0.015637
H 0.216292 -0.270226 2.210690
H -0.919776 -1.617520 -3.186115
H 2.161227 1.359591 1.098073
H 0.472058 1.550298 0.618785
H 2.065208 -1.039440 0.536686
H 1.603895 -0.070496 -0.876905
C -0.187131 -1.217239 -2.448633
C -0.605887 -1.465867 -1.122018
C 0.004423 -1.113182 0.079533
C 1.196971 0.843256 1.048821
C 1.304276 -0.363732 0.127854
O 0.825226 -0.647213 -2.871824
O -0.558906 -1.422267 1.180449
O -1.804670 -2.154491 -0.981190
O 0.826082 0.485167 2.357363
16
pair_049_b smiles=O=C/C(O)=C(/[O-])CCO id=0 energy_eV=-58.137993
H 2.232502 -0.636338 -1.432830
H 1.304974 1.250038 1.609656
H -0.558622 -1.760479 -2.960924
H -1.296436 0.960370 2.527853
H -0.172984 -0.395284 2.388492
H -1.528669 -0.136291 0.297936
H -0.956167 1.513075 0.147249
C -0.788076 -1.150915 -2.057781
C 0.388663 -0.687676 -1.431973
C 0.520415 0.053555 -0.258644
C -0.404444 0.609206 2.001890
C -0.683974 0.517199 0.513749
O -1.973463 -0.973699 -1.749132
O 1.682733 0.355494 0.163481
O 1.588999 -1.019348 -2.048637
O 0.644550 1.501092 2.289616
