13
pair_044_a smiles=O=CC/C=C(/[O-])C=O id=0 energy_eV=-51.576138
H -3.042759 -0.562945 0.174667
H 1.314305 1.180699 -1.380253
H 1.005669 -1.661283 -0.020268
H 1.371800 0.340446 1.574246
H 0.024959 1.166035 0.735740
C -2.067734 -0.060642 -0.013795
C 1.785104 0.974185 -0.396869
C -1.006721 -1.094198 -0.289058
C 0.295824 -0.846696 0.094522
C 0.835716 0.445201 0.624871
O -2.003307 1.149312 -0.053089
O 2.980262 1.114958 -0.253026
O -1.493117 -2.145070 -0.797687
13
pair_044_b smiles=O=CC/C=C(/[O-])C=O id=4 energy_eV=-51.556583
H 0.751131 -1.709053 -2.060086
H -0.549837 -0.581531 2.090056
H -0.025202 1.932332 -0.028620
H 1.774591 1.366046 1.613682
H 1.692445 -0.353149 1.131133
C 0.638528 -1.317355 -1.023314
C 0.069758 0.311722 2.306590
C 0.084502 0.084060 -1.037717
C 0.367454 0.922296 0.022984
C 1.116653 0.562823 1.271105
O 0.880004 -2.032924 -0.074931
O -0.177037 1.016266 3.262382
O -0.573827 0.338730 -2.086849
