14
pair_030_a smiles=O=CO[C@]1(O)[CH-]C=C1O id=0 energy_eV=-53.001656
H -0.911630 1.518890 -0.926664
H -1.841144 -0.772898 0.273337
H -0.052717 1.992501 2.441387
H 1.847173 -0.860927 -2.262175
H 1.077216 -2.510289 -0.023676
C -0.363723 1.440207 1.538814
C 1.219910 -0.782932 -1.377983
C 0.157770 -0.005583 -1.104511
C 1.301103 -1.433360 -0.027997
C 0.056473 -0.625590 0.268197
O -1.233947 1.885681 0.809662
O -0.452613 1.091583 -1.665350
O -1.113932 -1.288706 0.625035
O 0.310063 0.351423 1.431925
14
pair_030_b smiles=O=CO[C@]1(O)[CH-]C=C1O id=3 energy_eV=-52.973892
H -0.921193 1.715489 -0.684240
H -1.901485 -1.138744 0.103185
H 0.199105 1.541915 2.743677
H 1.684283 -0.352743 -2.364671
H 1.232890 -2.382101 -0.382940
C -0.109044 1.276564 1.718283
C 1.085668 -0.474322 -1.464866
C -0.063024 0.108896 -1.073205
C 1.292242 -1.294406 -0.235329
C -0.048605 -0.718952 0.188298
O -0.558108 2.133707 0.978128
O -0.859113 1.151319 -1.475500
O -1.114785 -1.584993 0.418966
O 0.081169 0.018371 1.530215
