11
pair_000_a smiles=C=CO/C=C/[O-] id=10 energy_eV=-42.735844
H 1.631396 -2.420003 0.134028
H 0.603737 -2.575285 1.677471
H -0.471274 -0.437015 1.224889
H 0.147588 2.392576 0.148275
H -1.100724 0.199257 -1.638174
C 0.885548 -2.007569 0.800932
C 0.307149 -0.824720 0.570167
C -0.633464 2.058542 -0.582195
C -0.478781 0.745936 -0.940702
O -1.507513 2.885772 -0.951214
O 0.616338 -0.017492 -0.443477
11
pair_000_b smiles=C=CO/C=C/[O-] id=13 energy_eV=-42.745392
H -0.764728 -2.257377 -1.647480
H -1.936694 -2.552091 -0.232560
H -1.177588 -0.526531 0.884357
H 1.496966 0.080362 1.631426
H 0.061320 2.061624 -0.258337
C -1.178606 -1.939377 -0.699474
C -0.762649 -0.831657 -0.073862
C 1.174697 1.120813 1.367199
C 0.428931 1.163448 0.218500
O 1.512773 2.062467 2.130074
O 0.181469 -0.019732 -0.530897
