9
pair_052_a smiles=O=C=C([O-])CO id=5 energy_eV=-36.721432
H -0.249778 -0.735621 2.108688
H -0.187662 -2.068939 -0.291219
H -1.646364 -1.138328 0.071830
C 0.807318 0.707920 0.978267
C 0.129606 0.032837 -0.084608
C -0.579093 -1.245564 0.316569
O 1.902070 1.169295 1.204198
O -0.211242 0.621372 -1.140279
O -0.398075 -1.590936 1.677446
9
pair_052_b smiles=O=C=C([O-])CO id=6 energy_eV=-36.739788
H 0.324351 -0.793595 1.443971
H 1.557496 -0.357796 -0.656894
H 1.262352 1.300102 -0.129362
C -1.404116 -0.625221 -0.052575
C -0.500435 0.267672 -0.646638
C 0.892082 0.276393 -0.050629
O -2.430137 -0.738343 0.572728
O -0.670980 0.763885 -1.801334
O 0.969386 -0.093098 1.320733
