13
pair_038_a smiles=O=CO/C=C\[C-](O)O id=2 energy_eV=-49.173409
H 1.206123 0.586548 2.826890
H 0.443679 0.858842 -0.231551
H -1.427483 -0.962789 -2.431901
H 0.690938 -2.476848 -1.077325
H 0.412021 -2.251585 1.325287
C -0.581758 -0.256331 -2.487926
C 0.010992 -1.701485 -0.705816
C 0.320516 -1.383268 0.679280
C 0.423360 -0.208962 1.308123
O -0.472093 0.630805 -3.301315
O 0.304364 -0.506547 -1.556009
O 0.531242 -0.080502 2.676207
O 0.395998 1.034690 0.717257
13
pair_038_b smiles=O=CO/C=C\[C-](O)O id=4 energy_eV=-49.175129
H 0.152939 0.726398 2.899359
H 0.473938 0.831458 -0.230074
H -1.410846 -0.933922 -2.452147
H 0.709485 -2.466795 -1.088077
H 0.201665 -2.272681 1.328989
C -0.569367 -0.220528 -2.480960
C 0.002502 -1.708839 -0.729335
C 0.237371 -1.405288 0.676494
C 0.421334 -0.242076 1.306491
O -0.456781 0.691258 -3.266153
O 0.309367 -0.494130 -1.547611
O 0.543406 -0.121117 2.673395
O 0.499968 1.000113 0.721642
