12
pair_027_a smiles=C=C([O-])C(=O)OC id=11 energy_eV=-46.930397
H -0.541899 1.197735 -1.947456
H -2.265586 1.598133 -1.351857
H 2.988686 -0.000906 -0.143664
H 2.404102 -1.636065 -0.449824
H 2.854531 -0.591049 -1.827336
C 0.379523 -0.023658 0.184626
C -1.294951 1.149881 -1.175020
C -1.046228 0.520037 0.023422
C 2.401667 -0.611812 -0.834130
O 0.884263 -0.366562 1.222648
O -1.793631 0.354702 1.017199
O 1.095158 -0.117266 -0.983320
12
pair_027_b smiles=C=C([O-])C(=O)OC id=5 energy_eV=-46.926971
H -0.953702 0.526594 1.303611
H -2.598106 0.840181 0.475031
H 3.066744 -0.116568 -0.580945
H 2.999956 0.437285 1.118006
H 2.457762 -1.202980 0.668699
C 0.440731 -0.229623 -0.744523
C -1.549617 0.573875 0.403361
C -0.994669 0.291849 -0.823880
C 2.500712 -0.156822 0.352539
O 0.913912 -1.098823 -1.431621
O -1.497819 0.326054 -1.973219
O 1.211196 0.387127 0.203138
