12
pair_091_a smiles=C/C(O)=C1/CO1 id=0 energy_eV=-43.852131
H -0.491300 -2.034047 -0.544295
H -0.648344 1.973916 -0.643105
H -2.193148 1.126746 -0.454679
H -1.315227 1.015337 -1.981045
H 1.370026 -0.979128 2.241749
H 2.538387 -0.890180 0.822554
C -0.481812 -0.130353 -0.408949
C 0.538447 -0.097388 0.421953
C -1.197219 1.070495 -0.897839
C 1.590869 -0.584753 1.254707
O -0.996161 -1.300430 -0.900655
O 1.285480 0.829783 1.089604
12
pair_091_b smiles=C/C(O)=C1/CO1 id=1 energy_eV=-43.842495
H 1.074575 1.441581 1.240757
H -0.656967 1.805930 -1.739840
H -1.989652 1.325626 -0.687544
H -1.239553 0.129790 -1.757127
H 1.896604 -1.971595 0.672894
H 0.514470 -2.005166 1.887586
C -0.070769 0.650597 -0.063477
C 0.257387 -0.586612 0.243116
C -1.046187 0.993751 -1.124928
C 0.880876 -1.678610 0.919213
O 0.447303 1.742063 0.580145
O -0.068088 -1.847355 -0.170795
