13
pair_041_a smiles=O=C([O-])O[C@H]1C[C@@H]1O id=3 energy_eV=-50.259224
H 0.317686 -1.317414 -2.432057
H 1.592171 1.389038 -0.775238
H 1.809197 0.561963 0.852477
H 1.200643 -1.615067 -0.160000
H -0.783903 0.661985 -0.830974
C -1.849783 0.523651 1.521702
C 1.299488 0.592431 -0.102304
C 0.932428 -0.720261 -0.716827
C -0.139912 0.131795 -0.137795
O -2.243039 0.118658 2.607244
O -2.191465 1.444371 0.779314
O 1.080060 -0.835622 -2.109854
O -0.743354 -0.304232 1.013438
13
pair_041_b smiles=O=C([O-])O[C@H]1C[C@@H]1O id=0 energy_eV=-50.244507
H 0.555688 -1.560876 -2.352599
H 1.587240 1.230454 -0.625680
H 1.519071 0.470862 1.046386
H 1.023392 -1.740393 0.028964
H -0.745009 0.552763 -1.044251
C -1.810672 0.707967 1.478047
C 1.176229 0.464937 0.020104
C 0.878866 -0.862155 -0.595367
C -0.248252 0.039176 -0.225332
O -2.406431 0.285805 2.460856
O -1.735359 1.806963 0.929865
O 1.243424 -1.036209 -1.941721
O -1.038188 -0.359294 0.820729
