12
pair_020_a smiles=CO[C@H]1C=C([O-])O1 id=2 energy_eV=-46.506462
H 1.360487 1.622527 -0.579312
H -1.658718 -1.163903 0.026633
H -1.593257 -1.690960 -1.676012
H -1.243277 0.010884 -1.236967
H 1.952716 -1.109737 0.018058
C 0.529136 0.825791 1.379238
C 0.905742 0.864985 0.039233
C -1.141610 -1.033780 -0.928612
C 0.973733 -0.613409 0.056494
O 0.298861 1.505203 2.361077
O 0.467873 -0.632573 1.405948
O 0.205081 -1.407038 -0.830834
12
pair_020_b smiles=CO[C@H]1C=C([O-])O1 id=0 energy_eV=-46.501289
H 2.254791 0.197431 -0.017292
H -0.254686 1.098214 -1.734040
H -1.318544 1.033789 -0.317674
H -1.924226 0.486268 -1.904923
H 0.431534 -2.030681 0.069218
C 0.687636 0.242077 1.632003
C 1.271635 0.018590 0.389023
C -1.052182 0.526297 -1.247405
C 0.198287 -0.957720 0.099582
O 0.815658 0.819664 2.694932
O -0.445815 -0.633443 1.349341
O -0.664089 -0.800486 -1.012765
