12
pair_043_a smiles=CC([O-])=C=CC=O id=8 energy_eV=-47.830173
H 1.186857 -2.996208 -0.391323
H -0.529660 -2.742744 1.153117
H -0.277025 2.530624 0.904221
H 0.141469 1.229340 2.057939
H 1.030346 1.382367 0.535266
C -1.033680 -0.697783 0.826676
C 0.780755 -1.951190 -0.327770
C -0.318461 -1.813369 0.613965
C -0.925217 0.578432 0.266183
C 0.049189 1.494300 1.003641
O 1.292049 -1.092222 -1.017497
O -1.601288 1.032086 -0.668897
12
pair_043_b smiles=CC([O-])=C=CC=O id=7 energy_eV=-47.850658
H 0.791392 -3.327776 -1.144560
H -1.209548 -3.030249 0.000584
H 0.361833 -0.178840 2.158075
H 1.184422 1.035180 1.150946
H -0.239551 1.499021 2.099503
C -1.152055 -0.923339 0.310049
C 0.615596 -2.275190 -0.795906
C -0.661998 -2.091391 -0.128246
C -0.655391 0.376729 0.304684
C 0.214696 0.692982 1.518797
O 1.484268 -1.450222 -0.994578
O -0.939689 1.289477 -0.487259
