8
pair_098_a smiles=C=[C-]OC=O id=5 energy_eV=-32.538048
H 1.576523 1.481237 -0.450031
H -1.198671 -1.386929 -1.698114
H -2.205162 -2.139510 -0.328973
C -0.867488 -0.675641 0.325462
C 0.884880 0.997524 0.270977
C -1.443609 -1.427039 -0.629890
O 0.925310 1.273389 1.444810
O 0.126208 0.166765 -0.389043
8
pair_098_b smiles=C=[C-]OC=O id=4 energy_eV=-32.554993
H 0.777300 0.948299 2.123669
H -0.321026 1.828301 -1.820991
H -0.783118 0.343180 -2.842631
C -0.299226 -0.114481 -0.863986
C 0.735649 0.206989 1.299001
C -0.471012 0.744014 -1.883713
O 1.274601 -0.867744 1.407164
O 0.067925 0.723016 0.307702
