10
pair_066_a smiles=C/C=C(/[O-])O id=0 energy_eV=-38.392105
H 0.268748 2.345063 -0.984828
H -1.494645 -0.707567 0.753221
H 1.505524 -0.622010 -0.017378
H 0.554597 -2.039999 -0.441145
H 0.846890 -1.653175 1.245735
C -0.654416 0.961318 -0.180196
C -0.585612 -0.318882 0.307964
C 0.622189 -1.195403 0.268819
O -1.608128 1.776637 -0.194436
O 0.544853 1.454018 -0.757756
10
pair_066_b smiles=C/C=C(/[O-])O id=1 energy_eV=-38.397583
H -0.324078 -2.044927 -1.477701
H 0.334859 1.715034 -0.531598
H 1.024105 0.428584 1.799321
H -0.546887 1.219681 1.815958
H -0.429120 -0.505451 1.482613
C -0.009638 -0.252394 -1.146036
C 0.117419 0.713860 -0.181642
C 0.044303 0.458591 1.286783
O 0.054268 -0.174515 -2.395851
O -0.265231 -1.558463 -0.651849
