11
pair_014_a smiles=C=CCC(=O)[O-] id=0 energy_eV=-43.985672
H 0.587964 1.637111 -3.167509
H -0.477660 0.160564 -3.490078
H -0.711583 -0.226030 -1.098238
H 1.272521 2.071475 -0.744266
H -0.293298 2.065978 0.064891
C 0.992269 0.575555 0.836759
C -0.004334 0.818741 -2.769345
C -0.133886 0.619563 -1.459989
C 0.476459 1.422337 -0.376579
O 1.999135 1.034145 1.404311
O 0.309566 -0.427712 1.115647
11
pair_014_b smiles=C=CCC(=O)[O-] id=3 energy_eV=-43.970222
H -1.214675 2.691452 -1.714726
H -1.876940 1.275831 -2.702048
H -0.675456 -0.300807 -1.296439
H 0.433625 2.179601 0.122541
H -0.293718 0.848703 1.004333
C 1.584201 0.331942 0.161901
C -1.272229 1.617533 -1.870280
C -0.620378 0.763070 -1.086278
C 0.230467 1.107888 0.075757
O 2.342626 0.734321 1.062461
O 1.740257 -0.600478 -0.647852
