11
pair_056_a smiles=COC(C)=O id=3 energy_eV=-40.316391
H -2.118719 -0.218613 1.583065
H -2.275875 -0.116130 -0.193554
H -1.713619 1.295526 0.720356
H 1.678396 -1.476382 -0.227245
H 2.314619 0.056880 0.348333
H 2.194161 -0.227963 -1.399368
C 0.348144 0.185316 -0.434906
C -1.703359 0.208203 0.674914
C 1.721073 -0.409529 -0.439643
O -0.074425 0.980691 -1.228162
O -0.370396 -0.277999 0.596210
11
pair_056_b smiles=COC(C)=O id=0 energy_eV=-40.297428
H 1.768402 -1.611502 1.051159
H 2.300218 0.075451 0.858763
H 1.888001 -0.883390 -0.580239
H -1.825502 1.010980 0.836417
H -2.084002 1.309610 -0.910215
H -2.289149 -0.313568 -0.223586
C -0.277670 0.294185 -0.451363
C 1.647913 -0.703846 0.464622
C -1.711646 0.610249 -0.168900
O 0.293251 0.516842 -1.482553
O 0.290184 -0.305009 0.605895
