13
pair_001_a smiles=C=C([O-])COC id=0 energy_eV=-46.862488
H -2.660299 -1.669300 -0.643612
H -2.606908 -0.520093 0.821897
H 2.013024 1.106303 -0.674577
H 2.955980 0.304994 0.611476
H 1.952161 -0.651745 -0.536535
H -0.948632 0.867899 1.232774
H -0.213517 1.536889 -0.249719
C -2.133867 -0.912686 -0.070989
C -0.881281 -0.489031 -0.454326
C 2.021138 0.271627 0.041777
C -0.294623 0.642500 0.389558
O -0.182694 -0.878841 -1.436048
O 0.979520 0.391484 0.968324
13
pair_001_b smiles=C=C([O-])COC id=7 energy_eV=-46.866432
H -2.756855 -0.694315 0.892442
H -2.975492 1.114249 0.497975
H 1.508015 0.359513 -1.108415
H 2.386858 -0.855409 -0.139625
H 2.184574 -1.114813 -1.888645
H -0.878888 -1.804899 0.598191
H 0.489027 -0.817743 1.160263
C -2.338494 0.236633 0.525135
C -1.023896 0.308518 0.122797
C 1.702798 -0.708550 -0.994271
C -0.219121 -0.977648 0.330396
O -0.394178 1.302885 -0.343363
O 0.513808 -1.419287 -0.804086
