12
pair_060_a smiles=CC(=O)/C=C/O id=1 energy_eV=-44.910427
H -0.524141 -0.809997 -2.868549
H -1.966204 -1.119695 -0.471750
H 0.707032 0.238201 -1.151885
H 1.138070 0.901180 2.488070
H 1.274476 1.816985 0.965308
H 2.036487 0.240956 1.093560
C -0.096386 0.180279 0.896739
C -1.144419 -0.771540 -1.085064
C -0.127577 -0.093965 -0.544468
C 1.165766 0.822651 1.404648
O -1.016953 -0.089563 1.638367
O -1.287407 -1.109869 -2.367489
12
pair_060_b smiles=CC(=O)/C=C/O id=2 energy_eV=-44.892906
H 0.710776 2.186476 -1.994382
H 1.962316 1.179126 0.316388
H -0.716015 0.538101 -1.055149
H -0.955942 -2.338739 1.310740
H -2.087239 -1.064517 0.812554
H -1.142231 -1.902541 -0.412877
C -0.033309 -0.490739 0.770628
C 1.165581 1.258476 -0.413432
C 0.075323 0.492078 -0.315165
C -1.116564 -1.523365 0.610128
O 0.703353 -0.490674 1.733499
O 1.433950 2.156319 -1.362934
