14
pair_078_a smiles=C[C@@H]1C[C@H](O)O1 id=0 energy_eV=-48.474884
H 0.643104 -0.493410 -2.720390
H 0.433192 -0.710797 2.383413
H 1.171735 -1.277311 0.873420
H 1.876084 0.091366 1.750887
H -2.071781 0.459078 0.091554
H -1.262729 -1.131976 0.078002
H -0.845001 1.042161 -1.984854
H -0.181045 1.427678 1.293151
C 0.941274 -0.393803 1.470030
C -1.127073 -0.059748 -0.047581
C -0.369951 0.324631 -1.308802
C 0.066667 0.549848 0.693560
O 0.066525 -0.789139 -2.014430
O 0.658998 0.961420 -0.557962
14
pair_078_b smiles=C[C@@H]1C[C@H](O)O1 id=1 energy_eV=-48.485275
H 0.928274 2.817167 0.840076
H -1.520616 -2.098966 -0.157339
H -2.201963 -0.865862 -1.225743
H -1.984768 -0.516528 0.499172
H 1.714087 -1.023007 0.479341
H 0.342561 -0.523256 1.505711
H 1.873832 1.303246 -0.392463
H 0.254520 -1.024637 -1.505464
C -1.555348 -1.026707 -0.362893
C 0.813071 -0.416851 0.529591
C 0.941869 1.039105 0.118942
C -0.172437 -0.516245 -0.636504
O 0.686308 1.939288 1.135663
O -0.119390 0.913253 -0.828090
