11
pair_069_a smiles=O=CC/C=C\[O-] id=10 energy_eV=-43.401936
H -0.645122 1.918436 -1.893150
H 1.542407 -1.963049 1.447414
H 0.678920 -1.571415 -0.736774
H -1.111023 0.590233 0.002560
H 0.424285 1.333166 0.159634
C -0.194500 0.902235 -1.776154
C 1.062965 -0.967308 1.278939
C 0.582996 -0.785326 0.000577
C -0.063815 0.493676 -0.358986
O 0.091496 0.273378 -2.766176
O 1.028676 -0.164702 2.251151
11
pair_069_b smiles=O=CC/C=C\[O-] id=1 energy_eV=-43.389233
H -2.092304 -1.013557 1.732046
H 1.172729 1.472143 -2.050871
H -1.003946 1.367930 -1.085626
H -0.225440 -1.206197 0.273941
H -0.010554 0.072454 1.385060
C -1.959862 -0.280430 0.898816
C 1.046082 0.759970 -1.198666
C -0.228187 0.733463 -0.679416
C -0.555298 -0.165699 0.447290
O -2.925128 0.318956 0.489735
O 2.052783 0.093222 -0.835903
