14
pair_017_a smiles=O=COCCC[O-] id=1 energy_eV=-50.226269
H 1.365764 1.392741 1.645046
H -2.239354 0.706566 -0.426270
H -2.938782 0.138312 -1.949549
H 1.287091 -0.445847 -1.485645
H 0.076688 -1.253877 -0.443142
H -0.781430 -0.665999 -2.720125
H -0.683837 1.051377 -2.265168
C 1.393254 0.542650 0.943513
C -2.181843 -0.150175 -1.160710
C 0.329203 -0.333894 -0.972863
C -0.812578 0.031384 -1.875925
O 2.163005 -0.375014 1.060979
O -2.346729 -1.350890 -0.629164
O 0.493047 0.724109 0.012137
14
pair_017_b smiles=O=COCCC[O-] id=7 energy_eV=-50.220158
H -0.585940 -1.287667 -3.114005
H -0.227334 2.346149 1.467685
H 0.290539 1.912729 -0.167191
H 0.911439 -0.908280 0.273244
H -0.639901 -1.786342 0.384437
H -1.684581 0.614025 0.571960
H -0.755692 0.006207 1.962505
C -0.368293 -1.621009 -2.085593
C 0.309804 1.531146 0.897353
C -0.169765 -0.835591 0.132572
C -0.680331 0.336211 0.921053
O -0.131133 -2.768496 -1.807855
O 1.510531 1.215527 1.357806
O -0.426781 -0.593512 -1.281228
