5
pair_097_a smiles=O=C=C[O-] id=0 energy_eV=-21.901495
H 0.060610 -0.678043 1.189513
C 0.154998 -0.258524 -0.774095
C -0.185002 0.148436 0.478546
O 0.851732 -0.366503 -1.749589
O -0.882338 1.154634 0.855626
5
pair_097_b smiles=O=C=C[O-] id=1 energy_eV=-21.924280
H -0.169767 0.304271 -1.321780
C 0.677008 0.043869 0.480233
C -0.415108 -0.115099 -0.315095
O 1.379347 0.583777 1.295603
O -1.471481 -0.816817 -0.138961
