11
pair_090_a smiles=O=C/C=[C-]\CO id=6 energy_eV=-42.367672
H -1.277237 1.003394 -0.063907
H -0.623379 -2.045801 -1.471473
H 1.428218 -1.476882 -0.818080
H 1.039545 2.443468 0.383311
H 0.557243 1.453190 1.727112
C 1.232936 0.388474 0.146060
C -0.602662 -1.062997 -0.938591
C 0.722030 -0.688642 -0.532934
C 0.464318 1.540417 0.626754
O -1.686762 -0.499563 -0.774468
O -0.892125 1.830776 0.282214
11
pair_090_b smiles=O=C/C=[C-]\CO id=4 energy_eV=-42.342323
H -0.567886 0.724655 0.822561
H 1.625319 0.390365 -1.775614
H -0.208411 -0.453541 -2.728164
H -3.194087 0.263105 0.046644
H -2.313311 -1.152208 0.545812
C -1.696028 -0.423241 -1.232579
C 0.752333 0.364941 -1.078624
C -0.429414 -0.166767 -1.694345
C -2.175383 -0.135832 0.124686
O 0.955252 0.762953 0.070947
O -1.509958 0.694870 1.079423
