7
pair_006_a smiles=CC(=O)[O-] id=0 energy_eV=-28.756737
H 1.126533 -0.465041 0.759020
H -0.526803 -1.080837 0.845103
H 0.427631 -1.233937 -0.664868
C -0.299506 0.798592 -0.272656
C 0.199680 -0.595260 0.191241
O 0.194552 1.218671 -1.339164
O -1.122086 1.357812 0.481324
7
pair_006_b smiles=CC(=O)[O-] id=1 energy_eV=-28.776814
H 0.212596 0.484782 -1.373975
H 0.615640 1.297437 0.163770
H -1.065389 0.952767 -0.218196
C 0.068541 -0.788591 0.410026
C -0.046100 0.572528 -0.317699
O 0.416479 -1.759403 -0.292421
O -0.201766 -0.759520 1.628494
