13
pair_088_a smiles=C[C@H]1O[C@H]1OC(=O)[O-] id=0 energy_eV=-50.547337
H 1.873100 1.921469 0.524621
H 0.810552 1.720576 1.926738
H 0.112667 1.856819 0.299662
H 0.340085 -1.720986 -0.550877
H 2.007158 -0.462921 0.885685
C -1.886008 -0.884282 -1.522663
C 0.946989 1.459752 0.874711
C 0.078350 -0.753864 -0.134529
C 1.019192 -0.028802 0.717784
O -2.691304 -0.166189 -2.088511
O -1.729499 -2.095222 -1.409713
O -0.842497 -0.064246 -0.824521
O -0.038785 -0.782104 1.301613
13
pair_088_b smiles=C[C@H]1O[C@H]1OC(=O)[O-] id=1 energy_eV=-50.555176
H 1.549568 1.871618 0.454192
H 1.148280 1.540574 2.149077
H -0.143302 1.691580 0.931495
H 0.292998 -1.669065 -0.646223
H 1.912769 -0.591548 0.985046
C -1.685095 -0.658575 -1.837625
C 0.866284 1.331387 1.114216
C 0.025731 -0.751767 -0.133077
C 0.933627 -0.134364 0.826042
O -2.477071 0.126032 -2.330504
O -1.404022 -1.838124 -2.022756
O -0.866384 0.014339 -0.780623
O -0.153383 -0.932085 1.290740
