11
pair_003_a smiles=C=C([O-])CC=O id=2 energy_eV=-43.473518
H 0.186060 2.045339 -0.941605
H -0.474402 -2.117992 0.377448
H 1.271253 -2.502330 -0.147937
H -1.282114 -0.063088 0.749478
H -0.013556 1.066510 1.327554
C -0.694803 1.463321 -0.609538
C 0.508114 -1.768221 0.086433
C 0.798046 -0.427009 0.056456
C -0.391335 0.498101 0.469678
O -1.773261 1.634630 -1.136451
O 1.865997 0.170739 -0.231515
11
pair_003_b smiles=C=C([O-])CC=O id=4 energy_eV=-43.487213
H 0.734013 -0.282169 2.024658
H -0.039419 -0.048491 -2.278567
H -0.545872 -1.837428 -2.113146
H 0.276334 1.380257 -0.478700
H -1.082785 1.051912 0.608298
C 0.754030 0.671721 1.465748
C -0.308340 -0.887068 -1.647926
C -0.394870 -0.740895 -0.286103
C -0.113360 0.675661 0.258281
O 1.426463 1.604366 1.850828
O -0.706195 -1.587866 0.596629
