11
pair_065_a smiles=OC/C=C1/[CH-]O1 id=0 energy_eV=-41.408012
H 0.542103 -0.250420 1.726045
H -1.280550 -0.836480 -1.084073
H -1.798650 2.554203 0.169789
H 0.593678 -2.157817 -0.271391
H 1.504556 -0.679832 -0.549820
C -1.046015 0.666989 0.359053
C -0.634502 -0.409152 -0.327786
C -1.983597 1.649986 0.779256
C 0.650586 -1.099123 0.010891
O -0.457397 1.326603 1.368149
O 0.965356 -1.054701 1.395543
11
pair_065_b smiles=OC/C=C1/[CH-]O1 id=3 energy_eV=-41.419384
H 0.239287 1.313974 0.940825
H 0.053177 -1.806264 -0.419561
H -3.041505 -0.578282 0.919996
H 2.111330 -0.345372 0.064248
H 1.255574 0.293787 -1.334457
C -1.005096 -0.518836 0.836594
C 0.017983 -0.815726 0.024913
C -2.183517 -0.817985 1.575016
C 1.157746 0.113671 -0.250596
O -1.304878 0.595252 1.528504
O 1.035433 1.367861 0.390135
