13
pair_007_a smiles=C=C([O-])C(=O)C(=O)OC=O id=2 energy_eV=-54.357239
H 2.917678 -1.581317 -1.411303
H -2.631402 -0.295507 1.808742
H -0.793202 -0.273807 1.575858
C 2.401553 -1.187580 -0.520303
C 0.691784 0.468571 -0.072205
C -0.642652 0.839565 -0.736567
C -1.775377 -0.030727 1.198942
C -1.949690 0.645624 0.004232
O 2.700230 -1.472731 0.597059
O 1.199629 0.936010 0.889483
O -0.525497 1.304733 -1.847097
O -2.991217 1.054454 -0.547046
O 1.398165 -0.407288 -0.939794
13
pair_007_b smiles=C=C([O-])C(=O)C(=O)OC=O id=0 energy_eV=-54.327030
H 3.261583 -1.011669 -1.465595
H -2.874025 -0.395786 1.692168
H -1.034206 -0.567392 1.527761
C 2.671757 -0.856498 -0.547043
C 0.628799 0.327827 0.013052
C -0.688703 0.653925 -0.723885
C -1.963595 -0.171822 1.147925
C -2.009987 0.625623 0.018718
O 3.044290 -1.178863 0.537669
O 0.986911 0.675943 1.086731
O -0.554877 0.979774 -1.880417
O -2.974515 1.221285 -0.503516
O 1.506569 -0.302346 -0.903568
