9
pair_075_a smiles=C=C([O-])OC=O id=6 energy_eV=-38.085419
H -1.429717 2.202735 -0.555741
H 0.756032 -1.190628 -1.476900
H 1.495408 -2.172703 -0.065303
C -1.195451 1.266147 -0.006764
C 0.976773 -1.294801 -0.426800
C 0.640453 -0.326389 0.466671
O -2.006074 0.765959 0.734046
O 0.763860 -0.120028 1.656147
O -0.001284 0.869708 -0.325357
9
pair_075_b smiles=C=C([O-])OC=O id=4 energy_eV=-38.068924
H -0.342677 -0.759239 3.060080
H -0.924342 -1.654541 -0.679045
H -0.504919 -0.502865 -2.093314
C 0.080505 -0.486700 2.069566
C -0.675291 -0.668345 -1.038738
C -0.505277 0.367086 -0.176808
O 1.268004 -0.562028 1.864609
O -0.235125 1.549862 -0.221065
O -0.874582 -0.123400 1.272465
