13
pair_042_a smiles=O=C/C=C\C([O-])=C/O id=3 energy_eV=-51.212803
H 0.003329 -3.190510 -1.272383
H 0.174460 2.065768 0.149467
H 2.838737 0.660849 -0.543304
H 1.605949 -1.380136 -0.447868
H -1.810636 -2.203861 0.215723
C 1.248242 2.028724 -0.079971
C 1.777094 0.698345 -0.310955
C 1.072779 -0.454313 -0.255373
C -0.786005 -1.940882 -0.031149
C -0.356622 -0.627782 0.063716
O 1.940338 3.037853 -0.136675
O -1.097075 0.348033 0.388617
O 0.043525 -3.033481 -0.329299
13
pair_042_b smiles=O=C/C=C\C([O-])=C/O id=4 energy_eV=-51.238583
H -0.431296 -2.051283 1.651674
H 1.185041 1.266513 -1.692158
H 2.873478 0.011593 0.571068
H 0.899259 -0.962315 1.354703
H -2.545592 -0.908951 0.186727
C 2.108531 1.070895 -1.129615
C 1.954819 0.218323 0.027406
C 0.796330 -0.342384 0.462108
C -1.517567 -0.965742 0.521054
C -0.546768 -0.182906 -0.083874
O 3.190270 1.541915 -1.470048
O -0.793143 0.614471 -1.046678
O -1.370197 -1.896647 1.536629
