10
pair_058_a smiles=O=CC(=O)/C=C/[O-] id=5 energy_eV=-43.524147
H 1.143317 -0.898585 0.953467
H -0.596940 -1.302281 1.542511
H -1.823988 1.390236 0.639320
C 1.222482 -0.191309 0.102322
C 0.125763 0.860601 -0.017433
C -1.370224 -0.505720 1.494026
C -1.054807 0.628684 0.716419
O 2.159377 -0.272611 -0.650785
O 0.351958 1.839692 -0.740419
O -2.422868 -0.694615 2.113779
10
pair_058_b smiles=O=CC(=O)/C=C/[O-] id=3 energy_eV=-43.503956
H -0.041944 -1.618879 0.686729
H -1.212488 -0.841952 -0.571869
H 0.360169 1.809458 -0.844196
C 0.430948 -0.879024 1.364606
C 0.767182 0.484298 0.768824
C -0.943494 0.127411 -1.043958
C 0.094165 0.847977 -0.415500
O 0.680397 -1.189804 2.501514
O 1.610661 1.164177 1.368028
O -1.576440 0.470356 -2.048887
