14
pair_077_a smiles=CC(=C=O)C(=O)[C@H]([O-])O id=1 energy_eV=-54.223022
H -0.479638 -2.162992 -0.569242
H -0.696385 1.541265 -1.389545
H 0.637480 2.221530 -2.334852
H 0.228048 0.492151 -2.444384
H -1.144383 0.345177 0.224683
C 2.384715 1.673457 -0.526727
C 0.967824 0.038882 0.454101
C 1.240715 1.047969 -0.635229
C 0.304162 1.346755 -1.773517
C -0.488260 -0.543180 0.436859
O 3.402346 2.220633 -0.397927
O 1.806351 -0.239677 1.275853
O -0.808938 -1.280113 1.422265
O -0.513576 -1.259610 -0.896039
14
pair_077_b smiles=CC(=C=O)C(=O)[C@H]([O-])O id=0 energy_eV=-54.228867
H -1.122756 -1.763593 0.455420
H 0.631150 1.358782 -2.744163
H -0.579901 0.399735 -1.869559
H -0.243290 2.061264 -1.376676
H -0.960067 0.975640 0.479556
C 2.523291 0.650750 -1.160735
C 0.967556 0.011914 0.524084
C 1.259911 0.622963 -0.823279
C 0.206036 1.144446 -1.761287
C -0.553182 0.018897 0.901758
O 3.652145 0.666396 -1.437910
O 1.848899 -0.425793 1.222936
O -0.832498 -0.255351 2.110262
O -1.085517 -0.985329 -0.107389
