14
pair_093_a smiles=C=C([O-])C(=O)C(=O)OC id=15 energy_eV=-54.519051
H 2.327134 -1.010872 -2.558337
H 1.748223 -1.434677 -0.848407
H -0.642021 -2.312486 -1.569086
H -1.992732 -2.987763 -0.607874
H -1.985197 -1.264329 -1.060988
C 0.050834 -0.759617 0.578153
C -0.102120 0.300467 -0.519286
C 1.650449 -0.815565 -1.733231
C 0.760434 0.241679 -1.770310
C -1.364549 -2.114556 -0.776006
O 0.703336 -0.598700 1.570375
O -0.952168 1.136754 -0.302328
O 0.545028 1.089210 -2.661280
O -0.697656 -1.877166 0.456232
14
pair_093_b smiles=C=C([O-])C(=O)C(=O)OC id=1 energy_eV=-54.506218
H -2.899681 -0.791810 -0.808238
H -1.181750 -1.451290 -1.027752
H 1.877603 0.165666 1.145785
H 0.290969 -0.643279 1.241180
H 1.772174 -1.538083 1.665905
C 0.926823 -0.607880 -1.324333
C 0.176392 0.684105 -0.980502
C -1.838335 -0.597325 -0.909313
C -1.341447 0.691793 -0.967777
C 1.348470 -0.777175 1.012259
O 1.089687 -0.996659 -2.445898
O 0.880433 1.646303 -0.756120
O -1.928881 1.792371 -0.929732
O 1.524244 -1.266934 -0.308645
