12
pair_068_a smiles=O=C/C=C(\[O-])CO id=2 energy_eV=-47.093948
H 1.351698 -0.107280 -1.712805
H -2.145166 -1.419391 -0.724973
H 0.109731 -1.285551 -0.988411
H 2.610530 0.964099 0.329925
H 2.668444 -0.793707 0.513485
C -1.662530 -0.706769 -0.003539
C -0.263399 -0.634808 -0.202314
C 0.698783 0.069783 0.563747
C 2.135480 0.029505 0.020348
O -2.389156 -0.128390 0.799705
O 0.536145 0.696133 1.612925
O 2.254780 -0.135742 -1.382414
12
pair_068_b smiles=O=C/C=C(\[O-])CO id=4 energy_eV=-47.057083
H 0.356793 -0.557348 -1.859658
H -2.392071 1.297014 0.277364
H -1.194109 -0.529189 -0.363682
H 2.262873 -1.553682 -0.191204
H 0.650071 -2.271169 0.017837
C -1.311088 1.360001 0.573468
C -0.594740 0.214201 0.156364
C 0.760507 -0.135939 0.395840
C 1.197537 -1.398725 -0.368397
O -0.942509 2.365142 1.175863
O 1.592690 0.431806 1.103949
O 0.974315 -1.289603 -1.768670
