13
pair_095_a smiles=O=C/C(O)=C/C=C/[O-] id=8 energy_eV=-51.790222
H -1.563972 0.829215 0.658440
H -1.624683 -1.677331 -1.554991
H 1.485653 0.018596 -0.826596
H -0.970003 2.326935 1.007446
H 2.041177 1.796760 0.630519
C -0.598788 -1.252736 -1.487441
C -0.530721 -0.126964 -0.618045
C 0.653529 0.505706 -0.327842
C 0.123789 2.460057 1.195172
C 0.984523 1.586580 0.499992
O 0.309998 -1.769080 -2.137225
O 0.450049 3.376589 1.956696
O -1.751495 0.240049 -0.074779
13
pair_095_b smiles=O=C/C(O)=C/C=C/[O-] id=0 energy_eV=-51.800320
H -1.557517 0.562948 -0.992572
H -0.039374 -2.379795 -0.482823
H 1.598557 0.682162 0.500955
H -1.890845 2.031656 -0.296935
H 0.966224 2.961767 0.386068
C 0.590855 -1.551450 -0.088917
C -0.037662 -0.279944 -0.215924
C 0.589741 0.884458 0.154086
C -1.071706 2.771705 -0.120265
C 0.204636 2.231247 0.134250
O 1.694438 -1.809366 0.391664
O -1.387447 3.965887 -0.130599
O -1.310451 -0.334804 -0.763319
