13
pair_005_a smiles=O=C(CO)O[C@@H]1[CH-]O1 id=8 energy_eV=-48.702396
H 0.916502 -0.225963 -2.807471
H -1.277012 0.857665 2.287206
H 2.466667 -0.093960 -0.701651
H 1.585876 1.429281 -0.850581
H -1.424812 -1.567764 0.451018
C 0.342194 -0.306255 -0.711861
C -1.879785 -0.050926 2.091016
C 1.607863 0.387669 -1.183994
C -1.072594 -0.835009 1.173727
O -0.361209 -0.865675 -1.536952
O 1.696947 0.304582 -2.577140
O 0.154035 -0.213288 0.562815
O -0.823613 -1.209607 2.440231
13
pair_005_b smiles=O=C(CO)O[C@@H]1[CH-]O1 id=14 energy_eV=-48.692318
H 0.228031 -0.304584 -3.041481
H -1.123918 1.240783 1.883725
H 2.265979 -0.283726 -1.405030
H 1.513732 1.313645 -1.376746
H -1.034762 -1.636386 0.888982
C 0.201472 -0.297983 -0.864920
C -1.593412 0.249451 2.040087
C 1.357285 0.271405 -1.668577
C -0.743215 -0.675082 1.312055
O -0.723315 -0.826534 -1.457550
O 1.078704 0.164018 -3.034986
O 0.343529 -0.152508 0.410794
O -0.346918 -0.604232 2.592312
