10
pair_061_a smiles=O=CCC[O-] id=8 energy_eV=-37.714310
H 0.648710 -1.725172 0.574616
H 1.564016 0.432369 -0.391606
H 0.455949 1.527327 -1.243094
H -1.504830 0.333076 -0.191630
H -0.430782 -0.592101 -1.305674
C -0.314883 -1.174517 0.693505
C 0.601552 1.014095 -0.245750
C -0.525173 -0.128493 -0.314859
O -1.041055 -1.465499 1.618452
O 0.546497 1.778915 0.806041
10
pair_061_b smiles=O=CCC[O-] id=5 energy_eV=-37.744190
H -1.053133 -0.836150 1.079602
H 0.737126 -1.527178 -0.392976
H 1.323179 -0.423459 -1.641227
H -0.659951 1.064998 -1.239117
H -1.142105 -0.604088 -1.640036
C -1.430172 -0.071387 0.368612
C 0.816016 -0.418126 -0.630868
C -0.636253 0.029647 -0.890427
O -2.431333 0.554290 0.637305
O 1.396191 0.315341 0.304198
