15
pair_012_a smiles=O[C@@H]1CCO[C@H]1O id=0 energy_eV=-51.808231
H 2.454783 -0.717141 1.105632
H -0.585036 1.869490 -0.777811
H -1.828113 0.615856 1.078752
H -1.210046 -0.900218 1.747101
H -1.838967 -0.596112 -0.986613
H -0.634830 -1.748740 -0.380767
H 1.734431 1.195120 0.136500
H 0.725579 -0.381543 -1.821319
C -1.033354 -0.128359 0.997710
C -0.921484 -0.698560 -0.411402
C 1.097205 0.311259 0.204752
C 0.206627 0.125804 -1.013285
O 1.856385 -0.850151 0.369218
O 0.206013 0.535172 1.265718
O -0.229192 1.368123 -1.514183
15
pair_012_b smiles=O[C@@H]1CCO[C@H]1O id=1 energy_eV=-51.743355
H -0.511744 1.405323 -2.528693
H 1.512920 -1.492157 0.259261
H -0.899372 -1.761218 0.639559
H -2.180934 -0.587266 0.958702
H -0.587711 1.147199 1.507094
H 0.275006 -0.259712 2.154288
H 0.591239 -0.438857 -1.819604
H 1.409310 1.313853 0.215253
C -1.171063 -0.698840 0.567617
C -0.148012 0.183435 1.253645
C 0.093846 0.247829 -1.125023
C 0.907175 0.351232 0.171407
O -0.045603 1.506079 -1.697902
O -1.166957 -0.291436 -0.788911
O 1.921901 -0.625464 0.233307
