13
pair_079_a smiles=CCCO[C-]=O id=1 energy_eV=-46.817127
H -2.435234 -0.969097 -0.610190
H -1.029263 -1.961507 -0.226671
H -1.150277 -1.177220 -1.801332
H 1.206704 -0.080787 -1.260918
H 1.192804 -0.802196 0.364635
H -0.900786 0.297424 0.883023
H -0.953741 1.072408 -0.692774
C 1.669010 1.078003 1.865993
C -1.352170 -1.048184 -0.733940
C 0.881352 0.084383 -0.219280
C -0.638904 0.165725 -0.169339
O 2.038070 2.121796 2.307695
O 1.472434 1.219251 0.293098
13
pair_079_b smiles=CCCO[C-]=O id=2 energy_eV=-46.842030
H 2.228778 0.717466 1.329587
H 0.836274 1.736169 1.704093
H 0.701008 -0.015033 1.824449
H -1.310357 0.145321 0.340983
H -1.084518 1.893143 0.109411
H 0.937459 -0.246052 -0.635696
H 1.181509 1.484737 -0.805825
C -2.332843 -0.522324 -1.676383
C 1.142141 0.794802 1.238461
C -0.836970 0.900958 -0.316003
C 0.674331 0.723671 -0.204893
O -2.717777 -0.632040 -2.791473
O -1.325615 0.761923 -1.587406
