14
pair_059_a smiles=CO/C([O-])=C\CO id=0 energy_eV=-50.452816
H 2.613350 1.820302 0.316407
H -0.171487 2.168637 0.940299
H 0.845789 -2.188131 -1.897958
H -0.374418 -0.983320 -2.418558
H -0.746339 -2.114754 -1.112213
H 1.336045 1.083829 2.599482
H 1.679280 -0.220448 1.448719
C -0.129543 0.534033 -0.373488
C 0.358752 1.253629 0.707062
C 0.053283 -1.511854 -1.564439
C 1.499753 0.854297 1.539768
O -1.097435 0.771805 -1.107063
O 0.628023 -0.634612 -0.645344
O 2.752888 1.539527 1.223444
14
pair_059_b smiles=CO/C([O-])=C\CO id=2 energy_eV=-50.455589
H 2.273860 2.218749 0.641736
H -0.501180 1.844458 1.098504
H 0.406212 -0.049033 -3.170374
H -0.549292 -1.272353 -2.334787
H 1.194176 -1.544358 -2.600064
H 1.147889 0.574453 2.480795
H 1.763434 -0.222212 1.021769
C -0.136893 0.695363 -0.618885
C 0.192594 1.142243 0.652709
C 0.434009 -0.792904 -2.367400
C 1.372005 0.719303 1.416669
O -1.104826 0.988801 -1.332592
O 0.793724 -0.237927 -1.139190
O 2.467394 1.689860 1.419010
