15
pair_084_a smiles=CCO[C@H](O)C=O id=3 energy_eV=-51.451576
H -1.821320 1.769753 -0.092564
H -2.549879 -0.371129 -1.327658
H 2.478445 -0.626707 1.660452
H 1.464977 -1.907352 0.981367
H 2.074026 -0.611153 -0.056269
H 0.087628 -0.281666 2.252371
H 0.688684 1.044465 1.257804
H 0.415898 0.541012 -1.236000
C -1.540660 -0.195182 -1.756054
C 1.689299 -0.841923 0.937934
C 0.464399 -0.024325 1.263246
C -0.580541 0.480170 -0.792494
O -1.271168 -0.494331 -2.880746
O -0.990200 1.801645 -0.574707
O -0.609589 -0.283277 0.363319
15
pair_084_b smiles=CCO[C@H](O)C=O id=1 energy_eV=-51.424538
H 0.585185 -2.417484 0.580754
H -0.008419 -1.482916 2.733442
H 0.426603 1.907831 -0.920793
H -0.340602 1.715318 -2.497724
H -1.334836 1.965534 -1.055003
H 0.376569 -0.509991 -1.638841
H -1.379156 -0.424299 -1.757376
H 1.225141 0.305923 0.584285
C 0.186959 -0.481050 2.291838
C -0.435933 1.483099 -1.436007
C -0.511773 -0.011742 -1.244637
C 0.528675 -0.508076 0.804640
O 0.152905 0.512481 2.951482
O 1.200737 -1.686400 0.476962
O -0.672054 -0.368229 0.126979
