10
pair_074_a smiles=C/C=C(\[O-])O id=1 energy_eV=-38.450390
H 0.381350 -2.598870 -1.129887
H -0.774089 -0.541885 1.335145
H 0.292001 1.692276 -0.520855
H -1.051582 1.966104 0.591335
H 0.587711 1.805981 1.212226
C 0.195337 -0.860592 -0.518421
C -0.282466 -0.068560 0.492431
C -0.111068 1.410762 0.454349
O 0.803331 -0.559291 -1.573570
O -0.040524 -2.245925 -0.342754
10
pair_074_b smiles=C/C=C(\[O-])O id=0 energy_eV=-38.424786
H 1.148502 0.073130 2.623367
H 1.428509 -0.091771 -0.766092
H -1.018346 0.943221 -1.707085
H -1.633551 -0.401068 -0.757183
H -0.588618 -0.705685 -2.148372
C 0.269907 0.059959 0.992015
C 0.424434 -0.029621 -0.366404
C -0.747351 -0.041826 -1.287452
O -0.766728 0.143105 1.693534
O 1.483241 0.050554 1.723672
