13
pair_036_a smiles=O=C1OC[C-](CO)O1 id=1 energy_eV=-49.662117
H -0.291603 -0.532916 -2.118485
H 2.247218 -0.244031 -0.961694
H 1.214097 1.144670 -1.309420
H 0.405497 -1.591028 1.875057
H 1.013808 -2.178185 0.307290
C -1.636684 -0.562986 0.230282
C 0.621776 -0.041779 0.339178
C 1.208157 0.090773 -1.008733
C 0.365784 -1.440310 0.787409
O -2.827878 -0.476860 0.042809
O -0.796246 0.450974 0.281273
O 0.654435 -0.675864 -2.141033
O -1.016926 -1.739366 0.417563
13
pair_036_b smiles=O=C1OC[C-](CO)O1 id=7 energy_eV=-49.668324
H 0.859528 -2.001369 0.633563
H 2.076720 0.198095 0.852728
H 1.925397 0.047228 -0.901064
H -1.475272 0.567616 1.652206
H -0.079304 -0.408681 2.175801
C -1.469568 -1.136907 -0.527764
C 0.117979 0.395974 0.166556
C 1.456765 -0.220733 0.048833
C -0.679734 -0.107016 1.313228
O -2.154145 -1.846561 -1.222524
O -0.747593 -0.116439 -0.942722
O 1.593972 -1.682986 0.106692
O -1.387997 -1.296796 0.812126
