10
pair_053_a smiles=[O-][C@@H](O)CO id=6 energy_eV=-36.432594
H -1.310474 0.961789 0.217301
H 0.603945 -0.983678 1.749173
H -0.560238 -1.266095 -0.817284
H 0.037407 0.059083 -1.843133
H 1.523971 0.647427 -0.160585
C -0.394880 -0.180069 -0.860372
C 0.598738 0.224373 0.291975
O -0.010042 1.014793 1.152209
O -1.583164 0.528768 -0.653186
O 1.094737 -1.006392 0.923902
10
pair_053_b smiles=[O-][C@@H](O)CO id=4 energy_eV=-36.448925
H 1.041055 0.727261 0.967600
H -1.849541 0.192362 0.997322
H 0.009841 0.804493 -1.490220
H 1.300399 -0.404658 -1.251741
H -0.435577 -1.602423 -0.258062
C 0.595475 0.269659 -0.735419
C -0.338373 -0.580612 0.178322
O 0.096898 -0.548185 1.422680
O 1.279895 1.165298 0.095857
O -1.700072 -0.023194 0.073661
